[Molden Format]
[Atoms] (AU)
C    1    6          -0.0795192925        -0.0031336697        -0.0010923141
O    2    8           2.2814624905         0.0948482946         0.0183975017
O    3    8          -1.1873790321         1.5704322755         1.4469367999
O    4    8          -1.0344250274        -1.6629295706        -1.4645148056
[GTO]
  1 0
 s    5  1.00
     1238.4016938000         0.0054568832
      186.2900499200         0.0406384092
       42.2511763460         0.1802559389
       11.6765579320         0.4631512175
        3.5930506482         0.4408717331
 s    1  1.00
        0.4024514736         1.0000000000
 s    1  1.00
        0.1309018267         1.0000000000
 p    3  1.00
        9.4680970621         0.0383878717
        2.0103545142         0.2111702511
        0.5477100471         0.5132817211
 p    1  1.00
        0.1526861379         1.0000000000
 d    1  1.00
        0.8000000000         1.0000000000

  2 0
 s    5  1.00
     2266.1767785000        -0.0053431810
      340.8701019100        -0.0398900392
       77.3631351670        -0.1785391199
       21.4796449400        -0.4642768496
        6.6589433124        -0.4430974517
 s    1  1.00
        0.8097597567         1.0000000000
 s    1  1.00
        0.2553077223         1.0000000000
 p    3  1.00
       17.7215043170         0.0433945732
        3.8635505440         0.2309412077
        1.0480920883         0.5137531106
 p    1  1.00
        0.2764154441         1.0000000000
 d    1  1.00
        1.2000000000         1.0000000000

  3 0
 s    5  1.00
     2266.1767785000        -0.0053431810
      340.8701019100        -0.0398900392
       77.3631351670        -0.1785391199
       21.4796449400        -0.4642768496
        6.6589433124        -0.4430974517
 s    1  1.00
        0.8097597567         1.0000000000
 s    1  1.00
        0.2553077223         1.0000000000
 p    3  1.00
       17.7215043170         0.0433945732
        3.8635505440         0.2309412077
        1.0480920883         0.5137531106
 p    1  1.00
        0.2764154441         1.0000000000
 d    1  1.00
        1.2000000000         1.0000000000

  4 0
 s    5  1.00
     2266.1767785000        -0.0053431810
      340.8701019100        -0.0398900392
       77.3631351670        -0.1785391199
       21.4796449400        -0.4642768496
        6.6589433124        -0.4430974517
 s    1  1.00
        0.8097597567         1.0000000000
 s    1  1.00
        0.2553077223         1.0000000000
 p    3  1.00
       17.7215043170         0.0433945732
        3.8635505440         0.2309412077
        1.0480920883         0.5137531106
 p    1  1.00
        0.2764154441         1.0000000000
 d    1  1.00
        1.2000000000         1.0000000000

[5D7F]
[9G]

[MO]
 Sym= A
 Ene=        -1.9331262247e+01
 Spin= Alpha
 Occup=         1.0000000000e+00
  1         2.3915140591e-04
  2         6.8015921453e-04
  3         8.1449697142e-03
  4        -3.8136136536e-05
  5        -1.0058869725e-04
  6        -8.9419423176e-05
  7        -4.8778714085e-03
  8        -1.1202167631e-02
  9        -9.9243775435e-03
 10        -2.6784125310e-04
 11        -8.8953795173e-04
 12        -1.0051697256e-03
 13         7.3702759980e-04
 14        -9.7903874149e-04
 15         1.0179754419e-02
 16        -1.4363116240e-03
 17         2.5398352606e-03
 18         4.0209408759e-04
 19        -1.7049563348e-04
 20        -1.6470950626e-04
 21        -1.0169716680e-03
 22         2.2087966718e-03
 23         2.0139357932e-03
 24         1.0312462856e-05
 25        -2.3877356102e-04
 26         1.9099615139e-04
 27        -4.3712038978e-05
 28        -2.6191370309e-04
 29         7.5891900012e-02
 30        -4.2698901612e-03
 31         7.0344717162e-03
 32        -4.1645537629e-04
 33         1.5342722942e-04
 34         1.5071963537e-04
 35         3.3568334902e-03
 36         2.3526527564e-05
 37        -8.0456521539e-05
 38        -2.0969969210e-04
 39        -1.9860203013e-04
 40        -1.9535805952e-04
 41         4.1748610576e-04
 42        -2.0036769626e-04
 43        -9.8573263826e-01
 44         4.1889325451e-02
 45        -3.2475627699e-02
 46         1.1546648071e-03
 47         1.9280659439e-03
 48         1.6983601935e-03
 49        -3.3112757387e-03
 50        -5.1348424910e-03
 51        -4.5160978865e-03
 52         6.1422966831e-05
 53         7.5197950481e-05
 54         2.4787931755e-05
 55        -1.1586062889e-04
 56         7.7365694736e-05
 Sym= A
 Ene=        -1.9330437235e+01
 Spin= Alpha
 Occup=         1.0000000000e+00
  1         2.8015579396e-04
  2         7.8872519238e-04
  3         9.4975566787e-03
  4        -5.0101165680e-05
  5         7.7095102111e-05
  6         7.0657326699e-05
  7        -6.7560099011e-03
  8         9.1310644866e-03
  9         8.4120133267e-03
 10        -2.9071701774e-04
 11         8.5969613124e-04
 12        -1.0852573695e-03
 13         6.7771723058e-04
 14         9.6184247190e-04
 15         1.3863234139e-02
 16        -1.7624020095e-03
 17         3.0075510495e-03
 18         4.5845403523e-04
 19         1.7917618823e-04
 20         1.4807393695e-04
 21        -9.8338254823e-04
 22        -1.9611715121e-03
 23        -1.7363543623e-03
 24         1.8870195513e-05
 25         1.8340775192e-04
 26         2.4850837823e-04
 27        -9.7209217003e-05
 28         2.0675908519e-04
 29        -9.8571547234e-01
 30         4.1725334504e-02
 31        -3.1763328475e-02
 32         1.2861118033e-03
 33        -1.8257579255e-03
 34        -1.6803119799e-03
 35        -3.3027534221e-03
 36         4.8982437042e-03
 37         4.5034848266e-03
 38         2.5517583941e-05
 39        -1.1415159020e-04
 40        -8.3014821029e-06
 41        -3.5386123506e-05
 42        -1.2932786515e-04
 43        -7.5957056911e-02
 44         2.1731988010e-03
 45         2.0700449550e-03
 46        -2.2656777610e-04
 47         1.0964484752e-04
 48         1.0560533750e-04
 49         2.8716646235e-03
 50        -5.3807729535e-04
 51        -5.7065781232e-04
 52        -1.9745854387e-04
 53         2.3891397678e-04
 54        -1.7190699282e-04
 55         3.6215345086e-04
 56         2.8407799198e-04
 Sym= A
 Ene=        -1.9325422616e+01
 Spin= Alpha
 Occup=         1.0000000000e+00
  1         3.1195881733e-04
  2         3.9708610258e-04
  3         1.0342501665e-02
  4        -2.6661294766e-04
  5        -1.1548554733e-05
  6        -2.7805822477e-06
  7         1.1488608026e-02
  8         4.9547138094e-04
  9         1.1186589765e-04
 10         8.3872535659e-04
 11        -4.1495809185e-05
 12         4.2807077490e-04
 13        -1.5385392762e-03
 14        -1.3062852345e-04
 15        -9.8859588916e-01
 16         4.1488915127e-02
 17        -2.9965774174e-02
 18        -2.7998941999e-03
 19        -1.1561915396e-04
 20        -2.2860812864e-05
 21         6.7317807204e-03
 22         2.7578195244e-04
 23         5.2520305512e-05
 24        -1.2936058537e-04
 25        -7.3802612419e-06
 26         2.4390578022e-04
 27         1.7188866358e-04
 28         1.1656396030e-05
 29        -1.3278353081e-02
 30        -4.4745096534e-04
 31         1.2748885369e-03
 32         5.0333750423e-07
 33         3.2216301484e-04
 34         2.8999316175e-04
 35        -1.5095402962e-03
 36        -1.2613039371e-03
 37        -1.0912434235e-03
 38        -2.8015972694e-05
 39         1.7719562930e-04
 40         2.1165649690e-04
 41        -8.0955033102e-06
 42         2.0417529417e-04
 43        -1.1451924874e-02
 44        -5.2254230165e-04
 45         1.3443734716e-03
 46         2.9221876671e-05
 47        -3.2392304559e-04
 48        -2.9171240270e-04
 49        -1.6179698118e-03
 50         1.1425819291e-03
 51         1.0731449940e-03
 52        -3.1636379973e-05
 53        -1.9339261074e-04
 54         1.9319329904e-04
 55         2.5680550074e-05
 56        -2.0693131695e-04
 Sym= A
 Ene=        -1.0447796210e+01
 Spin= Alpha
 Occup=         1.0000000000e+00
  1         9.8853143636e-01
  2         4.6715476612e-02
  3         2.0884546610e-04
  4         3.8897761804e-04
  5         1.5003519711e-05
  6         4.6791020720e-06
  7         4.6869181457e-04
  8         1.7629294130e-05
  9         7.6695700029e-06
 10        -9.1613225454e-04
 11        -1.1527187229e-04
 12         3.3383286127e-03
 13         8.7669867437e-04
 14         5.0320463660e-05
 15         6.1208037872e-05
 16         1.9005694128e-04
 17        -7.7495082764e-03
 18         9.6602132785e-04
 19         3.9434002502e-05
 20         7.5886082867e-06
 21         6.0998314031e-03
 22         2.5578755681e-04
 23         5.1656407220e-05
 24         4.7258254258e-04
 25        -1.3898004289e-05
 26         9.2405456453e-06
 27        -8.1791309917e-04
 28        -6.7937941191e-05
 29         1.8632316971e-05
 30         4.2781904419e-04
 31        -7.7933557371e-03
 32        -5.3519512113e-04
 33         6.4325275950e-04
 34         5.9463791520e-04
 35        -2.8659666501e-03
 36         4.2732086751e-03
 37         3.9268379218e-03
 38        -3.9986693012e-05
 39         6.6624496518e-04
 40        -8.9936032834e-04
 41         2.1668198670e-04
 42         7.2281118043e-04
 43         1.7549795777e-05
 44         4.3611323045e-04
 45        -7.7951045901e-03
 46        -4.7093713412e-04
 47        -6.8478470308e-04
 48        -6.0122437490e-04
 49        -2.4539007485e-03
 50        -4.4938869523e-03
 51        -3.9673364803e-03
 52        -5.5589876168e-05
 53        -5.8824311064e-04
 54        -9.6771973714e-04
 55         3.4295990475e-04
 56        -6.6823454739e-04
 Sym= A
 Ene=        -1.2368860958e+00
 Spin= Alpha
 Occup=         1.0000000000e+00
  1         1.8276049413e-01
  2        -3.5840950068e-01
  3        -1.4486302205e-02
  4        -4.0800443371e-02
  5        -1.7250683629e-03
  6        -4.4374479179e-04
  7        -4.5714049467e-03
  8        -2.2793728273e-04
  9        -7.1648722426e-05
 10         7.0867452284e-03
 11         6.9928733989e-04
 12        -2.1640898029e-02
 13        -7.6639675954e-03
 14        -5.0953726201e-04
 15        -1.6213598260e-01
 16        -3.2633070298e-01
 17        -1.6027604327e-01
 18         1.1500936322e-01
 19         4.7281855563e-03
 20         9.0388127481e-04
 21         2.6734437816e-02
 22         1.1146539071e-03
 23         2.2633986472e-04
 24         4.9713999013e-03
 25         1.0643959410e-04
 26        -5.3554333453e-03
 27        -7.4537798540e-03
 28        -5.5653526465e-04
 29        -1.3068974510e-01
 30        -2.6274301387e-01
 31        -1.3602705695e-01
 32        -4.8239104712e-02
 33         5.8256515554e-02
 34         5.3808444389e-02
 35        -1.2637623976e-02
 36         1.5451863229e-02
 37         1.4268723107e-02
 38        -1.3106701491e-03
 39         4.5983306880e-03
 40        -2.7962438019e-03
 41         2.5734426382e-03
 42         5.1781996442e-03
 43        -1.3089883503e-01
 44        -2.6321312153e-01
 45        -1.3654114181e-01
 46        -4.2447416184e-02
 47        -6.1974747919e-02
 48        -5.4455844726e-02
 49        -1.1173535220e-02
 50        -1.6513944450e-02
 51        -1.4513156904e-02
 52        -1.4727478841e-03
 53        -4.2689650908e-03
 54        -3.1634380158e-03
 55         3.4919781642e-03
 56        -4.6488097286e-03
 Sym= A
 Ene=        -1.1183482495e+00
 Spin= Alpha
 Occup=         1.0000000000e+00
  1         3.9556529779e-06
  2         3.8938353887e-06
  3        -1.3663391343e-05
  4        -6.1707594147e-03
  5         1.9746863376e-01
  6         1.7771562926e-01
  7        -5.6493834842e-04
  8         1.4308059939e-02
  9         1.2880217171e-02
 10        -3.5742067330e-04
 11        -1.5823506100e-02
 12        -9.8423314711e-04
 13         1.9016355536e-03
 14        -1.7530475002e-02
 15         2.9564313607e-03
 16         6.0106696635e-03
 17         3.4068680150e-03
 18        -2.9301791651e-03
 19         2.8247695161e-02
 20         2.5481449031e-02
 21        -8.5783439241e-04
 22         8.5513871958e-03
 23         7.7130707336e-03
 24        -8.6053188366e-05
 25        -2.9954568254e-03
 26        -5.1916202884e-05
 27         3.5434813788e-04
 28        -3.3142191470e-03
 29         1.9943772869e-01
 30         4.0827961815e-01
 31         2.2492119195e-01
 32         6.0876907217e-02
 33        -6.2533128273e-02
 34        -5.8045053432e-02
 35         1.7193021918e-02
 36        -1.7105351254e-02
 37        -1.5896954476e-02
 38         1.3399354333e-03
 39        -4.8268898607e-03
 40        -3.6788272912e-04
 41        -1.9379214309e-03
 42        -5.5006265132e-03
 43        -2.0302242572e-01
 44        -4.1573647775e-01
 45        -2.2938145829e-01
 46        -5.4674614352e-02
 47        -6.8510743901e-02
 48        -5.9951973358e-02
 49        -1.5519896580e-02
 50        -1.8899580305e-02
 51        -1.6522237874e-02
 52        -1.6025255896e-03
 53        -4.7789767799e-03
 54        -3.5699901422e-05
 55         3.0751264143e-03
 56        -5.1360940095e-03
 Sym= A
 Ene=        -1.0980940223e+00
 Spin= Alpha
 Occup=         1.0000000000e+00
  1         1.6214774247e-02
  2        -3.3036408723e-02
  3        -5.2769223401e-03
  4         2.5403160882e-01
  5         7.6900319693e-03
  6        -5.6329046884e-04
  7         1.4339981941e-02
  8         3.3058443590e-04
  9        -1.2832112271e-04
 10        -1.2469994282e-02
 11         1.3166335283e-03
 12        -1.7528726785e-02
 13         2.5218139411e-02
 14         2.4542626580e-03
 15         2.2097813497e-01
 16         4.5172532951e-01
 17         2.5728571875e-01
 18        -1.0706892106e-01
 19        -4.8506245106e-03
 20        -1.2658308290e-03
 21        -2.9606476717e-02
 22        -1.3722586075e-03
 23        -3.8071566463e-04
 24        -2.7157154360e-03
 25        -2.1150167668e-04
 26         7.2069193972e-03
 27         3.1659217468e-03
 28         2.2500030516e-04
 29        -1.3598394057e-01
 30        -2.7953914661e-01
 31        -1.5859807105e-01
 32        -8.4065421892e-03
 33         5.1831972044e-02
 34         4.6863048077e-02
 35        -1.1389319550e-03
 36         1.5177922756e-02
 37         1.3686020049e-02
 38        -2.4729238617e-03
 39         1.1214954874e-03
 40        -1.1396703324e-03
 41         4.4572445342e-03
 42         1.4911466964e-03
 43        -1.3062363470e-01
 44        -2.6858292203e-01
 45        -1.5272845332e-01
 46        -2.0055097436e-03
 47        -5.0468967614e-02
 48        -4.5299877414e-02
 49         6.6166328338e-04
 50        -1.4772168524e-02
 51        -1.3293871093e-02
 52        -2.5036988589e-03
 53        -7.6978264933e-04
 54        -1.1793896026e-03
 55         4.6186928745e-03
 56        -6.0549996153e-04
 Sym= A
 Ene=        -6.2482930914e-01
 Spin= Alpha
 Occup=         1.0000000000e+00
  1         1.7498879628e-01
  2        -4.3007910242e-01
  3        -3.5827033126e-02
  4        -1.0850763746e-02
  5         1.1085423454e-03
  6         1.1650217958e-03
  7         5.8799366059e-03
  8         4.6866711180e-04
  9         2.4768625206e-04
 10         1.7317084213e-03
 11         3.3330085815e-04
 12        -8.9846009510e-03
 13        -1.0918769044e-03
 14        -3.1396123366e-05
 15         1.0717449004e-01
 16         2.2694294476e-01
 17         2.2768370501e-01
 18         2.7588024373e-01
 19         1.2339376815e-02
 20         3.0076809280e-03
 21         1.3431682481e-01
 22         6.0805688415e-03
 23         1.5189553991e-03
 24         7.5509045208e-03
 25        -5.0455178615e-04
 26         5.1571503794e-03
 27        -1.4121514253e-02
 28        -1.2949485723e-03
 29         1.0090716186e-01
 30         2.1353809288e-01
 31         2.1467720347e-01
 32        -1.1960761961e-01
 33         1.6801874494e-01
 34         1.5451115055e-01
 35        -5.7731894747e-02
 36         8.2992767517e-02
 37         7.6263606789e-02
 38         9.4802064951e-05
 39         6.0759217954e-03
 40        -1.1339714355e-02
 41         1.8502209343e-03
 42         6.4805917439e-03
 43         1.0171465217e-01
 44         2.1526296670e-01
 45         2.1660348032e-01
 46        -1.0543129225e-01
 47        -1.7924437342e-01
 48        -1.5811369261e-01
 49        -5.0862897659e-02
 50        -8.8440283569e-02
 51        -7.8065975151e-02
 52         2.1394720841e-05
 53        -5.1806361860e-03
 54        -1.2052552850e-02
 55         2.8945440303e-03
 56        -6.0106090646e-03
 Sym= A
 Ene=        -5.8819369564e-01
 Spin= Alpha
 Occup=         1.0000000000e+00
  1        -6.8621314747e-04
  2         1.7793732499e-03
  3        -3.4621520414e-04
  4        -7.7658340831e-03
  5         2.4520771970e-01
  6         2.2064567480e-01
  7        -1.0192759915e-03
  8         3.0764475666e-02
  9         2.7673369016e-02
 10         1.4576638969e-04
 11         1.1072286682e-02
 12         5.9254836058e-04
 13        -1.0818118407e-03
 14         1.2279697916e-02
 15        -1.5946564900e-03
 16        -3.3425300819e-03
 17        -3.7618488802e-03
 18        -1.7049349115e-02
 19         2.3264676649e-01
 20         2.0963360413e-01
 21        -9.4724768546e-03
 22         1.3600723639e-01
 23         1.2254026028e-01
 24        -2.9251031841e-04
 25        -1.1003344777e-02
 26        -6.2454293157e-04
 27         1.3507905911e-03
 28        -1.2188598571e-02
 29        -8.7454398646e-02
 30        -1.8361859554e-01
 31        -2.0716534479e-01
 32         2.3741277679e-01
 33        -1.4842483684e-01
 34        -1.4054569828e-01
 35         1.3015818257e-01
 36        -6.9393629956e-02
 37        -6.6278993759e-02
 38        -2.6844818982e-03
 39        -8.8452357239e-03
 40         9.4974771868e-03
 41         3.2158235213e-03
 42        -9.2900681038e-03
 43         8.7416586880e-02
 44         1.8351120104e-01
 45         2.0741328333e-01
 46        -2.1922121508e-01
 47        -1.6946091542e-01
 48        -1.4585104313e-01
 49        -1.2120449847e-01
 50        -8.1003433083e-02
 51        -6.9235593550e-02
 52         2.4444989387e-03
 53        -8.0376173084e-03
 54        -1.0514450138e-02
 55        -1.4249708766e-03
 56        -9.4257935872e-03
 Sym= A
 Ene=        -5.8337549212e-01
 Spin= Alpha
 Occup=         1.0000000000e+00
  1         6.5600478287e-05
  2        -1.5585524012e-04
  3        -2.0420967512e-05
  4         7.2905454805e-03
  5        -2.4080761726e-01
  6         2.6786350311e-01
  7         3.1519316552e-03
  8        -1.0006557495e-01
  9         1.1130209726e-01
 10        -9.1114699757e-05
 11         1.1005368883e-03
 12        -4.5447448905e-06
 13         9.4116295723e-06
 14        -9.8824101748e-04
 15         1.8821122864e-04
 16         3.9723788869e-04
 17         4.5502606943e-04
 18         5.9688466977e-03
 19        -1.6520332516e-01
 20         1.8382758832e-01
 21         3.2268150493e-03
 22        -9.0091335796e-02
 23         1.0024784903e-01
 24        -1.7200865690e-04
 25        -1.2777277218e-02
 26        -4.2930881436e-04
 27        -8.7697446545e-04
 28         1.1464257685e-02
 29        -6.7640362525e-05
 30        -1.3389612037e-04
 31        -2.0396476822e-04
 32         6.8882882287e-03
 33        -2.1682824185e-01
 34         2.4043480195e-01
 35         3.8049255160e-03
 36        -1.2026603366e-01
 37         1.3338935369e-01
 38        -1.5220371225e-02
 39         6.7859814162e-03
 40        -1.6151993039e-03
 41        -8.3903904859e-03
 42        -6.6146081892e-03
 43        -5.0715852910e-05
 44        -9.8447653544e-05
 45        -1.6286987188e-04
 46         6.8845014338e-03
 47        -2.1845024291e-01
 48         2.4363627077e-01
 49         3.8098591686e-03
 50        -1.2136555982e-01
 51         1.3533178912e-01
 52         1.5488477585e-02
 53         6.4074959785e-03
 54         2.1340540802e-03
 55         9.2862849134e-03
 56        -5.2339868024e-03
 Sym= A
 Ene=        -5.6932632408e-01
 Spin= Alpha
 Occup=         1.0000000000e+00
  1         1.2355975300e-02
  2        -2.8122592100e-02
  3        -2.2086147016e-02
  4         3.5981206595e-01
  5         1.1718014594e-02
  6         8.0820193850e-04
  7         6.4830152520e-02
  8         1.9609341128e-03
  9         2.2073777467e-04
 10         2.6521111730e-04
 11        -1.8310727589e-04
 12         1.1946159513e-03
 13        -7.0027693060e-04
 14        -2.3383712485e-04
 15        -9.6414767531e-02
 16        -2.0113391417e-01
 17        -2.4899347586e-01
 18        -3.6936544730e-01
 19        -1.8204033090e-02
 20        -5.0287954805e-03
 21        -1.8423791962e-01
 22        -9.2885900063e-03
 23        -2.6595305513e-03
 24        -8.4721143818e-03
 25         4.9101868705e-04
 26        -3.0971365456e-03
 27         1.5270989612e-02
 28         1.4653571565e-03
 29         5.0107578394e-02
 30         1.0343600362e-01
 31         1.3168849503e-01
 32         8.7383041717e-02
 33         1.9387311064e-01
 34         1.7247887779e-01
 35         5.8328902590e-02
 36         1.0243799937e-01
 37         9.0791367087e-02
 38        -3.4850459944e-03
 39        -6.4802903759e-04
 40        -1.2563810280e-02
 41         8.6788078904e-03
 42        -6.2861383524e-04
 43         4.8194782584e-02
 44         9.9455943599e-02
 45         1.2679268752e-01
 46         1.1068878485e-01
 47        -1.8340194365e-01
 48        -1.6739208909e-01
 49         7.0803248943e-02
 50        -9.6203940963e-02
 51        -8.8161805237e-02
 52        -3.4293173718e-03
 53         2.0831451682e-03
 54        -1.2237181075e-02
 55         8.4865209610e-03
 56         2.4130181062e-03
 Sym= A
 Ene=        -4.6271966032e-01
 Spin= Alpha
 Occup=         1.0000000000e+00
  1        -2.7696917077e-04
  2         6.8289379365e-04
  3         2.1233889412e-04
  4        -6.0595680191e-03
  5         1.2405613073e-01
  6         1.1172215850e-01
  7         3.7319783457e-03
  8        -8.1054531585e-02
  9        -7.2976663652e-02
 10        -4.1432592471e-04
 11        -3.9020014348e-02
 12        -1.9670976561e-03
 13         3.9979621713e-03
 14        -4.3257991050e-02
 15        -9.4641420852e-05
 16        -2.3768730164e-04
 17        -9.4281925364e-05
 18         1.8400392404e-02
 19        -3.7961190580e-01
 20        -3.4179868785e-01
 21         1.1229999414e-02
 22        -2.3189377889e-01
 23        -2.0879310030e-01
 24         1.3344434095e-04
 25         9.3844415435e-03
 26         4.7500233656e-04
 27        -9.2490780904e-04
 28         1.0407898038e-02
 29        -1.6625040874e-02
 30        -3.4800119683e-02
 31        -4.1763231491e-04
 32        -3.9314924645e-03
 33        -2.3321164563e-01
 34        -2.0768270590e-01
 35        -2.4602838766e-03
 36        -1.4492266300e-01
 37        -1.2899382049e-01
 38         2.0380858311e-03
 39        -3.3769632385e-03
 40         7.7147494962e-03
 41        -5.0255666632e-03
 42        -3.8458850204e-03
 43         1.6421107074e-02
 44         3.4364408773e-02
 45        -2.7470493422e-04
 46         2.5333560988e-02
 47        -2.2980861357e-01
 48        -2.0924941112e-01
 49         1.5693774067e-02
 50        -1.4289052745e-01
 51        -1.3017039498e-01
 52        -2.1618291969e-03
 53        -2.6333720536e-03
 54        -7.9886924469e-03
 55         5.5382069928e-03
 56        -2.8242101620e-03
 Sym= A
 Ene=        -4.5720651567e-01
 Spin= Alpha
 Occup=         1.0000000000e+00
  1         8.4629451792e-07
  2        -1.9932089921e-06
  3        -1.3933605548e-06
  4         7.6454417107e-05
  5        -2.2517095068e-03
  6         1.7141729449e-03
  7         2.2251097630e-05
  8        -7.1518254604e-04
  9         1.1062806772e-03
 10         4.2515938462e-02
 11        -8.9302186283e-05
 12         5.2099810895e-03
 13         2.4478312592e-02
 14         1.7631005600e-03
 15         6.6686448028e-07
 16         1.4858276869e-06
 17         1.1207178033e-06
 18         8.4233792699e-05
 19        -3.0943826144e-03
 20         6.0597675889e-03
 21         5.6840046150e-05
 22        -2.0709894647e-03
 23         3.9532766666e-03
 24         1.9310833864e-03
 25        -2.8927748149e-04
 26         2.2681689003e-04
 27         1.1014333768e-03
 28         2.5910397069e-04
 29         5.5493303378e-05
 30         1.0989863714e-04
 31         8.1085625917e-05
 32         1.0348378190e-02
 33        -3.2158432433e-01
 34         3.5868295128e-01
 35         6.9145488555e-03
 36        -2.1409387760e-01
 37         2.3873285772e-01
 38        -1.2684123144e-02
 39         6.2947355063e-03
 40        -1.3602332846e-03
 41        -6.9280122383e-03
 42        -6.0621722010e-03
 43        -5.5718962992e-05
 44        -1.1036799418e-04
 45        -8.0706694941e-05
 46        -1.0479955359e-02
 47         3.2567076849e-01
 48        -3.6123413119e-01
 49        -7.0031719294e-03
 50         2.1686188064e-01
 51        -2.4060484556e-01
 52        -1.2850236176e-02
 53        -5.9084344657e-03
 54        -1.7562545984e-03
 55        -7.7693603879e-03
 56         4.8886275970e-03
 Sym= A
 Ene=        -4.2332527691e-01
 Spin= Alpha
 Occup=         1.0000000000e+00
  1         4.1493284036e-03
  2        -1.2300881543e-02
  3        -5.7690199456e-03
  4        -1.0718120224e-01
  5        -4.3594273202e-03
  6        -3.1574879329e-04
  7         1.3619472626e-01
  8         5.3237834474e-03
  9         1.0080689095e-03
 10         2.3697692586e-02
 11        -1.8795334912e-03
 12         3.1314066195e-02
 13        -4.7519142405e-02
 14        -4.3378290548e-03
 15         3.6514458209e-04
 16        -1.6961634283e-03
 17        -4.6422399174e-02
 18         2.8535518797e-01
 19         1.1204901202e-02
 20         4.6377632391e-03
 21         1.8345511891e-01
 22         7.1628285188e-03
 23         3.0845761753e-03
 24         4.3192925627e-03
 25        -3.5741252902e-04
 26         3.1130487391e-03
 27        -8.1192505025e-03
 28        -6.8167662746e-04
 29        -2.9039539258e-03
 30        -6.1858904570e-03
 31         2.0475036875e-02
 32         4.3126772339e-01
 33         4.3700647995e-02
 34         2.5191368439e-02
 35         2.7246691010e-01
 36         2.3079530564e-02
 37         1.1760206083e-02
 38        -3.3319126908e-03
 39        -6.5937806760e-03
 40        -2.6808154442e-03
 41         6.8174147283e-03
 42        -6.9792165914e-03
 43        -2.8239776755e-03
 44        -6.0018557295e-03
 45         2.0542331951e-02
 46         4.3710856774e-01
 47        -8.6684147513e-03
 48        -2.1981330102e-02
 49         2.7588646444e-01
 50        -8.9455695646e-04
 51        -9.8382382313e-03
 52        -3.2459069963e-03
 53         6.9946726119e-03
 54        -2.0813246316e-03
 55         5.5457298680e-03
 56         8.0874538871e-03
 Sym= A
 Ene=        -4.1445857353e-01
 Spin= Alpha
 Occup=         1.0000000000e+00
  1        -2.1931835031e-05
  2         6.8709044998e-05
  3        -7.7980956964e-06
  4         1.8149650089e-03
  5        -4.4889618114e-02
  6         4.9945847141e-02
  7         7.7575169937e-05
  8        -2.1648401677e-02
  9         2.4052015231e-02
 10        -1.0298049111e-04
 11         3.6321213824e-02
 12         1.0681571657e-03
 13         2.2964697725e-03
 14        -3.2597177264e-02
 15         1.6050877475e-05
 16         4.1150183678e-05
 17         2.7894313509e-04
 18         1.0943563399e-02
 19        -3.7247114529e-01
 20         4.1421324388e-01
 21         7.6218625183e-03
 22        -2.5816005202e-01
 23         2.8709347388e-01
 24        -2.7922424969e-04
 25        -1.6159629417e-02
 26        -5.6432043761e-04
 27        -1.0594745472e-03
 28         1.4508499686e-02
 29        -3.8604306394e-06
 30        -8.2910619545e-06
 31        -1.3617344103e-04
 32        -7.7169303549e-03
 33         1.8548994140e-01
 34        -2.0651465208e-01
 35        -5.2087907860e-03
 36         1.2764253595e-01
 37        -1.4203765462e-01
 38         6.6284753436e-03
 39        -1.3992360204e-03
 40         7.7164339601e-04
 41         3.7025252519e-03
 42         1.5318764433e-03
 43        -4.0085982599e-06
 44        -8.9460614344e-06
 45        -1.3263978772e-04
 46        -7.5271363398e-03
 47         1.7855945679e-01
 48        -1.9854627379e-01
 49        -5.0729349164e-03
 50         1.2278547156e-01
 51        -1.3659197622e-01
 52        -6.3509663474e-03
 53        -1.1430166396e-03
 54        -8.1073020516e-04
 55        -3.7556543677e-03
 56         7.5377390205e-04
 Sym= A
 Ene=        -3.8452406507e-01
 Spin= Alpha
 Occup=         1.0000000000e+00
  1        -5.4257921647e-05
  2         1.3961552382e-04
  3         1.4071496095e-04
  4        -4.1007266812e-05
  5         3.5668321102e-03
  6         3.2093381511e-03
  7         4.8080206614e-04
  8        -2.6429916019e-02
  9        -2.3775104576e-02
 10        -2.8045489688e-04
 11        -1.0785350319e-02
 12        -6.8396572925e-04
 13         1.2670484795e-03
 14        -1.1953351348e-02
 15         1.3743106012e-04
 16         3.5845382130e-04
 17         5.1290671867e-04
 18        -1.3444949690e-02
 19         2.4970032401e-01
 20         2.2490346874e-01
 21        -8.7876451134e-03
 22         1.6316057249e-01
 23         1.4695861134e-01
 24        -1.1802667635e-04
 25        -6.6000258190e-03
 26        -3.5927872720e-04
 27         7.0140654180e-04
 28        -7.3156078611e-03
 29        -2.3629862709e-03
 30        -8.3793895622e-03
 31         1.4742912154e-02
 32        -3.9427381534e-01
 33        -1.7274494852e-01
 34        -1.4414568289e-01
 35        -2.6135183951e-01
 36        -1.1783315138e-01
 37        -9.8570175964e-02
 38         4.3898034433e-03
 39         5.8430258867e-03
 40         5.5427597670e-03
 41        -9.1328317252e-03
 42         6.1112245986e-03
 43         2.2395876070e-03
 44         8.0644525147e-03
 45        -1.5312376224e-02
 46         4.0518487264e-01
 47        -1.4023256321e-01
 48        -1.3757250744e-01
 49         2.6903769391e-01
 50        -9.6394191112e-02
 51        -9.4267317642e-02
 52        -4.1804371763e-03
 53         6.4319626806e-03