[Molden Format]
[Atoms] (AU)
NI   1   28          -0.8847359094         0.5918049487        -0.1391414632
C    2    6           1.5691981464        -1.1616736163         1.6255275688
C    3    6           1.9596536936        -1.1991844947        -1.0701367150
H    4    1           2.8136100874        -0.0026611563         2.8244078436
H    5    1           0.9194869266        -2.8874884196         2.5891536429
H    6    1           1.6133813408        -2.9553132486        -2.1312554587
H    7    1           3.4955879671        -0.0644171845        -1.8966309137
[GTO]
  1 0
 s    6  1.00
    71074.8032110000         0.0014260387
    10672.0209410000         0.0109282370
     2428.1389007000         0.0542126269
      685.5359514800         0.1887476890
      223.1007286300         0.3832461698
       76.8420140420         0.2955063714
 s    3  1.00
      148.7112201600        -0.1101444306
       17.4591549870         0.6452142699
        7.1625280665         0.4479783810
 s    3  1.00
       12.5561371250        -0.2264540322
        2.0735740488         0.7232095929
        0.8538264060         0.4486802648
 s    1  1.00
        0.1053676627         1.0000000000
 s    1  1.00
        0.0381340877         1.0000000000
 p    5  1.00
      916.7360866200         0.0093439636
      216.0613991300         0.0697373749
       68.3839148170         0.2707349501
       24.5938439520         0.5307830155
        9.1392960204         0.3441022944
 p    3  1.00
        4.7193371746         0.3407608202
        1.8161849234         0.5658016961
        0.6784075072         0.2361671736
 p    1  1.00
        0.1465880000         1.0000000000
 d    4  1.00
       47.0938321080         0.0289823169
       13.1464639750         0.1549499595
        4.4170548925         0.3763311511
        1.4771565078         0.4736509601
 d    1  1.00
        0.4373592179         1.0000000000
 f    1  1.00
        2.1740000000         1.0000000000

  2 0
 s    5  1.00
     1238.4016938000         0.0054568832
      186.2900499200         0.0406384092
       42.2511763460         0.1802559389
       11.6765579320         0.4631512175
        3.5930506482         0.4408717331
 s    1  1.00
        0.4024514736         1.0000000000
 s    1  1.00
        0.1309018267         1.0000000000
 p    3  1.00
        9.4680970621         0.0383878717
        2.0103545142         0.2111702511
        0.5477100471         0.5132817211
 p    1  1.00
        0.1526861379         1.0000000000
 d    1  1.00
        0.8000000000         1.0000000000

  3 0
 s    5  1.00
     1238.4016938000         0.0054568832
      186.2900499200         0.0406384092
       42.2511763460         0.1802559389
       11.6765579320         0.4631512175
        3.5930506482         0.4408717331
 s    1  1.00
        0.4024514736         1.0000000000
 s    1  1.00
        0.1309018267         1.0000000000
 p    3  1.00
        9.4680970621         0.0383878717
        2.0103545142         0.2111702511
        0.5477100471         0.5132817211
 p    1  1.00
        0.1526861379         1.0000000000
 d    1  1.00
        0.8000000000         1.0000000000

  4 0
 s    3  1.00
       13.0107010000         0.0196821580
        1.9622572000         0.1379652400
        0.4445379600         0.4783193500
 s    1  1.00
        0.1219496200         1.0000000000
 p    1  1.00
        0.8000000000         1.0000000000

  5 0
 s    3  1.00
       13.0107010000         0.0196821580
        1.9622572000         0.1379652400
        0.4445379600         0.4783193500
 s    1  1.00
        0.1219496200         1.0000000000
 p    1  1.00
        0.8000000000         1.0000000000

  6 0
 s    3  1.00
       13.0107010000         0.0196821580
        1.9622572000         0.1379652400
        0.4445379600         0.4783193500
 s    1  1.00
        0.1219496200         1.0000000000
 p    1  1.00
        0.8000000000         1.0000000000

  7 0
 s    3  1.00
       13.0107010000         0.0196821580
        1.9622572000         0.1379652400
        0.4445379600         0.4783193500
 s    1  1.00
        0.1219496200         1.0000000000
 p    1  1.00
        0.8000000000         1.0000000000

[5D7F]
[9G]

[MO]
 Sym= A
 Ene=        -3.0003325698e+02
 Spin= Alpha
 Occup=         1.0000000000e+00
  1         9.9540161145e-01
  2         1.4668258630e-02
  3        -3.2388560684e-03
  4         2.7475170686e-03
  5        -7.9786917937e-04
  6         8.6931471585e-06
  7        -5.8184297148e-06
  8         1.3609590028e-06
  9        -4.6059179339e-05
 10         3.0836242327e-05
 11        -7.2332221844e-06
 12         9.2521896654e-04
 13        -6.1924104262e-04
 14         1.4568047586e-04
 15         1.6833062960e-05
 16        -9.9256552886e-06
 17         1.0296694889e-05
 18        -2.9343385143e-05
 19         7.0084243243e-05
 20        -7.3564404072e-05
 21         4.2322961240e-05
 22        -4.3175157900e-05
 23         1.2279914868e-04
 24        -2.9342616801e-04
 25         1.6374241681e-07
 26         3.5321875462e-07
 27        -4.3327315840e-07
 28        -2.2641467455e-07
 29        -1.5206828801e-06
 30        -1.6681811973e-06
 31        -8.9757645313e-06
 32         1.3933488202e-05
 33         8.7902779225e-05
 34        -1.1904970279e-03
 35         7.6983661231e-05
 36        -5.4622412293e-05
 37         5.0208189370e-05
 38         3.9665189930e-04
 39        -2.6741330643e-04
 40         7.8921667342e-05
 41         3.4503979721e-05
 42        -6.7007090052e-05
 43         4.3306866018e-05
 44        -1.5959773322e-05
 45         5.0289164733e-05
 46         1.4176368801e-05
 47         8.3468973506e-05
 48        -1.1659824701e-03
 49         8.9074037056e-05
 50        -5.6125225226e-05
 51        -2.4351726098e-05
 52         3.9906108539e-04
 53        -2.6518071430e-04
 54         5.9920480696e-05
 55         6.2676397782e-05
 56         3.2707651629e-05
 57        -2.5080088160e-05
 58        -2.9589454095e-05
 59         6.1882852741e-05
 60         6.4370081640e-05
 61         2.0160753287e-04
 62        -1.7606911430e-05
 63         9.5428695018e-07
 64        -1.4918335303e-06
 65         6.4232331338e-05
 66         2.0079184629e-04
 67        -7.7604215108e-06
 68         1.5725794303e-05
 69        -1.9060248115e-07
 70         6.4260913870e-05
 71         2.0186606488e-04
 72        -6.9149144667e-06
 73         1.6449854592e-05
 74        -2.8140266138e-06
 75         6.3783750053e-05
 76         1.9934649738e-04
 77        -1.6353855249e-05
 78        -4.7451577288e-08
 79        -4.6104005591e-06
 Sym= A
 Ene=        -3.5779856794e+01
 Spin= Alpha
 Occup=         1.0000000000e+00
  1         3.3822460906e-01
  2        -1.0450979719e+00
  3        -1.7448263623e-02
  4         8.4873794018e-03
  5        -2.5439832180e-03
  6         2.5261240502e-04
  7        -1.6982581491e-04
  8         4.3560396900e-05
  9        -1.2732579421e-04
 10         8.5177692699e-05
 11        -1.9712534706e-05
 12         2.6880378385e-03
 13        -1.7991951409e-03
 14         4.2345928317e-04
 15         2.6663954287e-05
 16        -3.6494902369e-05
 17         5.3185853160e-05
 18        -1.6004551830e-04
 19         3.8009151203e-04
 20        -1.9702375566e-04
 21         1.2215308831e-04
 22        -1.3080439541e-04
 23         3.7502456743e-04
 24        -8.9537804083e-04
 25         9.5223980480e-07
 26         2.2761121213e-06
 27        -2.0346200432e-06
 28        -8.4240838610e-07
 29        -3.3324497830e-06
 30        -3.9149971687e-06
 31        -2.1191920942e-05
 32         3.9448468980e-05
 33         2.1327526388e-04
 34        -3.5005788292e-03
 35         2.2403193216e-04
 36        -1.5885521306e-04
 37         1.4521465247e-04
 38         1.1456537496e-03
 39        -7.6969495377e-04
 40         1.8537197148e-04
 41         9.6247620944e-05
 42        -1.7115170550e-04
 43         1.0804566457e-04
 44        -3.3964506589e-05
 45         1.1245381348e-04
 46         4.0067196504e-05
 47         2.0021369912e-04
 48        -3.4279217038e-03
 49         2.5848191537e-04
 50        -1.6302058597e-04
 51        -7.0042773039e-05
 52         1.1406080191e-03
 53        -7.6015555803e-04
 54         2.1497002293e-04
 55         1.6734120716e-04
 56         8.1488168464e-05
 57        -6.5389593002e-05
 58        -6.8087272344e-05
 59         1.4114283626e-04
 60         1.9374195790e-04
 61         6.2172055514e-04
 62        -5.4394917308e-05
 63        -5.7043340941e-06
 64        -1.0634155640e-06
 65         1.9314615917e-04
 66         6.1877846811e-04
 67        -1.6293315727e-05
 68         5.1578767961e-05
 69         3.9292358855e-06
 70         1.9359234356e-04
 71         6.2290364095e-04
 72        -1.3005903081e-05
 73         5.3691307956e-05
 74        -1.0744240274e-05
 75         1.9183177052e-04
 76         6.1433178910e-04
 77        -4.9658607980e-05
 78        -8.9027748076e-06
 79        -1.7231349774e-05
 Sym= A
 Ene=        -3.1186139530e+01
 Spin= Alpha
 Occup=         1.0000000000e+00
  1         7.0666305837e-05
  2        -2.4529630204e-04
  3        -2.4785106677e-04
  4         1.6033061164e-03
  5         1.0962465700e-03
  6        -8.1895659144e-01
  7         5.4819960855e-01
  8        -1.2360451618e-01
  9        -1.5253571972e-02
 10         1.0210350346e-02
 11        -2.3029217659e-03
 12         3.8809975919e-03
 13        -2.5981052804e-03
 14         5.9943148941e-04
 15         8.3068017174e-06
 16        -1.2196287368e-05
 17         1.7665304868e-05
 18        -5.3208303629e-05
 19         1.2635634556e-04
 20        -1.2630274015e-04
 21         7.5636957286e-05
 22        -7.5875335081e-05
 23         2.1396543113e-04
 24        -5.1309735748e-04
 25         2.2852714493e-05
 26         5.5666239113e-05
 27        -3.8867328658e-05
 28        -1.2299040409e-05
 29         1.3701316077e-05
 30         4.1863229558e-06
 31         1.5500591184e-05
 32         3.4652684772e-05
 33        -4.8045272141e-04
 34        -1.1795094715e-03
 35         1.3114944161e-04
 36        -9.6575285555e-05
 37         1.3241043184e-04
 38         5.7095766228e-04
 39        -3.8941641853e-04
 40         3.7894849033e-05
 41         5.0395389641e-05
 42         3.9616189919e-05
 43        -4.5690329868e-05
 44         5.7263931800e-05
 45        -1.4294809285e-04
 46         3.4195125961e-05
 47        -4.9128678999e-04
 48        -1.0965800100e-03
 49         1.6068426247e-04
 50        -9.8718740825e-05
 51        -8.5195691276e-05
 52         5.5681000886e-04
 53        -3.6011814455e-04
 54         1.8535709899e-04
 55         2.6562831863e-05
 56        -4.2563345194e-05
 57         8.5962729438e-06
 58         7.2024037453e-05
 59        -1.5770009628e-04
 60         2.0918605846e-04
 61        -4.0996572918e-04
 62         6.1247646756e-06
 63        -6.5148031244e-05
 64         6.4588083181e-05
 65         2.0624383502e-04
 66        -4.1928120305e-04
 67         5.7847172370e-05
 68         1.1877754308e-05
 69         7.1686930539e-05
 70         2.1094495262e-04
 71        -4.0843517564e-04
 72         7.6230375956e-05
 73         1.2717022941e-05
 74        -5.2756311546e-05
 75         2.0413105174e-04
 76        -4.2819833001e-04
 77         2.7256918446e-05
 78        -7.0443853546e-05
 79        -6.1963445814e-05
 Sym= A
 Ene=        -3.1179667826e+01
 Spin= Alpha
 Occup=         1.0000000000e+00
  1        -1.6783428510e-06
  2         5.3746197262e-06
  3         1.4490336983e-06
  4        -1.5091119945e-05
  5        -3.1906098903e-06
  6        -1.3919942175e-01
  7         1.3778288974e-02
  8         9.8338759253e-01
  9        -2.5628572879e-03
 10         2.5321540533e-04
 11         1.8109385511e-02
 12         4.0042611898e-04
 13        -3.3483405148e-05
 14        -2.9085201176e-03
 15         1.6874612145e-05
 16         6.3077628303e-05
 17        -4.3122613931e-05
 18        -8.2383715899e-06
 19         6.5018532637e-06
 20        -5.0303623100e-05
 21        -1.8927227553e-04
 22         1.2968998448e-04
 23         2.3786283573e-05
 24        -1.8025828433e-05
 25         3.8452880095e-05
 26        -1.7041276048e-05
 27         6.0570030731e-06
 28        -5.9020085466e-06
 29         1.7751136289e-05
 30         9.4185082261e-07
 31        -3.5271205533e-06
 32         5.2879387420e-06
 33         1.4236633070e-04
 34        -1.6598281583e-03
 35        -2.5926084382e-05
 36         1.4959980869e-05
 37         2.5563301627e-05
 38        -5.5822765818e-04
 39         2.4687891020e-04
 40         1.4292655723e-03
 41        -1.2718777843e-04
 42        -9.5888876921e-05
 43         8.2425468319e-05
 44         6.6869976737e-07
 45         1.8933493785e-05
 46        -5.9794241644e-06
 47        -1.4039655796e-04
 48         1.6828265457e-03
 49         1.4211954458e-05
 50        -1.2268113899e-05
 51         3.4147997658e-05
 52         1.2168915679e-04
 53        -1.9317062856e-04
 54         1.5358226895e-03
 55         5.9872572948e-05
 56        -1.3952772461e-04
 57         7.7547817818e-05
 58         3.2268390550e-05
 59        -4.7596278361e-05
 60        -8.0206443258e-05
 61         1.4095725069e-04
 62         2.3898882046e-05
 63         3.5271447968e-05
 64        -1.0724154091e-04
 65        -8.0552803378e-05
 66         1.3771489170e-04
 67        -1.4550399299e-05
 68        -2.3774357838e-05
 69        -1.1191984008e-04
 70         7.9868492525e-05
 71        -1.3312820901e-04
 72         4.5096608707e-05
 73         2.0933609167e-05
 74        -1.0271939808e-04
 75         7.6061405519e-05
 76        -1.4381421312e-04
 77         9.0515015144e-06
 78        -3.8847013660e-05
 79        -1.0844810982e-04
 Sym= A
 Ene=        -3.1170694274e+01
 Spin= Alpha
 Occup=         1.0000000000e+00
  1         9.7300708749e-08
  2        -3.0532745087e-07
  3         3.5458241762e-08
  4         2.0988658391e-06
  5        -2.2775953481e-06
  6         5.4450124703e-01
  7         8.2819380012e-01
  8         6.5470877280e-02
  9         9.9804878130e-03
 10         1.5180014163e-02
 11         1.1999231793e-03
 12        -1.4798584490e-03
 13        -2.2508659347e-03
 14        -1.7907867696e-04
 15         1.7050886443e-07
 16         2.1291737058e-06
 17         1.0110782128e-06
 18         1.5849793010e-05
 19         6.7403627418e-06
 20        -2.6120386411e-06
 21        -2.3107564873e-05
 22        -1.2636992067e-05
 23        -1.6381857645e-04
 24        -6.9247233184e-05
 25         4.0402853095e-06
 26         1.3857537775e-05
 27         2.0128666587e-05
 28         7.4578277443e-06
 29        -5.2315415985e-06
 30         6.1802630419e-05
 31        -1.1197006996e-05
 32        -1.9091977271e-08
 33        -7.1915694042e-07
 34         1.3228633468e-05
 35        -1.4867358235e-05
 36        -2.2558189749e-05
 37        -2.0043253429e-06
 38         1.5365188397e-04
 39         2.3152003589e-04
 40         1.3620837134e-05
 41        -3.2262763116e-06
 42        -2.0317156682e-05
 43        -2.0540120275e-05
 44        -8.1058466977e-05
 45        -3.2713619743e-05
 46        -1.2160483345e-07
 47         3.5029088351e-06
 48        -2.3108968997e-05
 49        -1.4771854153e-05
 50        -2.2293315181e-05
 51        -1.6614727938e-06
 52         1.4660488530e-04
 53         2.2401267884e-04
 54         1.4676761125e-05
 55         8.6028335288e-07
 56        -1.8663972867e-06
 57         7.5368966539e-06
 58        -8.3286268606e-05
 59        -3.7315749580e-05
 60        -1.0094877851e-04
 61         2.1229597088e-04
 62        -8.4970034933e-05
 63         2.7832527801e-07
 64        -3.6588535789e-05
 65         1.0006727268e-04
 66        -2.1461868873e-04
 67         3.1564085962e-05
 68        -8.1800113981e-05
 69         3.0828984684e-05
 70         9.9877642784e-05
 71        -2.1357225604e-04
 72         3.8996117585e-05
 73        -8.2263859196e-05
 74        -1.7457847633e-05
 75        -9.7397262855e-05
 76         2.2647044994e-04
 77        -9.4511213552e-05
 78         1.7989908117e-06
 79         1.2584808613e-05
 Sym= A
 Ene=        -1.0210484032e+01
 Spin= Alpha
 Occup=         1.0000000000e+00
  1         2.4749501587e-05
  2        -4.1514194558e-05
  3         4.6061050803e-04
  4         1.0014714568e-02
  5        -1.2497801984e-03
  6        -2.1513425695e-05
  7         1.3926416075e-05
  8         5.7569098281e-07
  9         1.4217704707e-04
 10        -9.4105562294e-05
 11         1.5774165684e-05
 12         3.3273597458e-03
 13        -2.2731177447e-03
 14         1.0802247629e-03
 15        -1.1509512934e-04
 16         8.4914558983e-05
 17        -6.4977261643e-05
 18         1.1952619641e-04
 19        -2.9343762965e-04
 20         5.4332561377e-04
 21        -3.6505786066e-04
 22         2.7621881864e-04
 23        -5.3279373904e-04
 24         1.3055389436e-03
 25         2.9267456516e-05
 26         1.7908236945e-05
 27        -1.0004685116e-05
 28        -1.4325715161e-05
 29         5.7955172072e-05
 30         2.9726296737e-05
 31         1.4295333709e-04
 32         8.2611067115e-01
 33         3.9729269418e-02
 34        -3.0395329300e-02
 35        -1.1457397499e-04
 36        -3.3361049822e-05
 37         1.3175507448e-03
 38         2.0724136495e-03
 39        -1.4921666035e-03
 40         1.9615771886e-03
 41        -1.8756108246e-04
 42         5.9898448123e-04
 43        -2.5657539610e-04
 44        -5.7105152676e-04
 45         1.2109725442e-03
 46         5.4316258655e-01
 47         2.5281801726e-02
 48        -1.4927236551e-02
 49         1.2871259364e-04
 50         6.4103183552e-05
 51        -1.7821363128e-03
 52         2.2073344929e-03
 53        -1.5786704505e-03
 54         1.1215221575e-03
 55        -1.0592311256e-03
 56        -1.9128848398e-04
 57         3.3092547516e-04
 58        -2.5422555234e-04
 59         6.2623247225e-04
 60        -2.8104260643e-03
 61         6.5009062077e-03
 62         1.2103129506e-03
 63         1.4975506647e-03
 64         7.2170886572e-04
 65        -2.8018382983e-03
 66         6.5190812024e-03
 67        -9.3773887539e-04
 68        -1.7720648886e-03
 69         4.5346810269e-04
 70        -1.8408481223e-03
 71         4.1777145419e-03
 72        -6.1184085629e-04
 73        -1.0658882914e-03
 74        -2.8056790944e-04
 75        -1.8223492835e-03
 76         4.2071561333e-03
 77         7.4036936295e-04
 78         1.0128417784e-03
 79        -1.0718355686e-04
 Sym= A
 Ene=        -1.0210124141e+01
 Spin= Alpha
 Occup=         1.0000000000e+00
  1         5.2540457104e-06
  2        -8.5063362149e-06
  3         9.8911453158e-05
  4         2.0802313379e-03
  5        -2.6728972218e-04
  6        -7.1962203757e-07
  7         1.9098561881e-06
  8        -2.0985953877e-05
  9         2.2332660930e-05
 10        -1.6994973547e-05
 11         3.9858924036e-05
 12         1.0850999397e-03
 13        -5.1029298143e-04
 14        -2.5689730533e-03
 15        -6.4216200558e-05
 16        -1.2877817566e-04
 17         8.6257903595e-05
 18         4.5675867479e-05
 19        -7.7521950636e-05
 20         2.7576454075e-04
 21         5.0390151561e-04
 22        -3.3726100309e-04
 23        -1.9708445603e-04
 24         3.4514072940e-04
 25        -8.7770530584e-05
 26         5.6471486012e-05
 27        -3.6588794840e-05
 28         5.0141638748e-05
 29        -1.2213950537e-04
 30        -1.4066595291e-06
 31         5.6545305756e-05
 32        -5.4261808370e-01
 33        -2.8265148519e-02
 34         3.3057486855e-02
 35        -6.9945812350e-04
 36         3.5002188505e-04
 37         1.3472495544e-03
 38         1.3536557827e-03
 39        -4.1418783706e-04
 40        -5.6802516533e-03
 41        -1.7082842497e-03
 42         4.9193120419e-05
 43         1.2097456710e-04
 44         4.3065253696e-04
 45        -9.8755437412e-04
 46         8.2574910881e-01
 47         4.1717191676e-02
 48        -4.2447783775e-02
 49         3.7116708187e-04
 50        -3.0707485344e-04
 51         8.6410578678e-04
 52         1.2844171407e-03
 53        -3.8770087021e-04
 54        -5.8526091206e-03
 55         1.1469112097e-03
 56        -1.0711606819e-03
 57         6.4641319983e-04
 58        -4.5352189916e-04
 59         1.2314052199e-03
 60         1.8686073096e-03
 61        -4.4999677923e-03
 62        -1.0706335250e-03
 63        -9.1168346965e-04
 64        -9.3496518267e-04
 65         1.8726668568e-03
 66        -4.4901951059e-03
 67         4.7319128518e-04
 68         1.4406527521e-03
 69        -7.4484614167e-04
 70        -2.8301400868e-03
 71         6.7135345041e-03
 72        -5.2572518200e-04
 73        -2.0536136453e-03
 74        -1.0011054430e-03
 75        -2.8213400806e-03
 76         6.7213072534e-03
 77         1.7288922378e-03
 78         1.4085770042e-03
 79        -7.2010592917e-04
 Sym= A
 Ene=        -3.9591865684e+00
 Spin= Alpha
 Occup=         1.0000000000e+00
  1         1.2692421854e-01
  2        -4.7286808471e-01
  3         1.0830855204e+00
  4         2.7898945234e-02
  5        -9.7642492670e-03
  6         2.1934479264e-03
  7        -1.4733972011e-03
  8         3.5661934449e-04
  9        -5.8267158693e-03
 10         3.9137961819e-03
 11        -9.4691265299e-04
 12         3.3215824156e-03
 13        -2.2245026653e-03
 14         5.2891924662e-04
 15         2.1189237037e-04
 16         4.4710143659e-04
 17        -8.7732434033e-04
 18         2.7041570931e-03
 19        -6.3994075141e-03
 20        -3.3579865650e-04
 21         2.0240447385e-04
 22        -2.0785325049e-04
 23         5.8707970113e-04
 24        -1.4040848066e-03
 25        -1.9827220391e-05
 26        -5.0524627257e-05
 27         3.3800403938e-05
 28         9.5998889626e-06
 29        -2.3421331921e-05
 30        -1.5795401067e-05
 31        -8.0611425307e-05
 32        -6.6109784408e-04
 33         1.0411624800e-03
 34        -6.3287282904e-03
 35        -7.6400947754e-04
 36         5.3920865220e-04
 37        -4.6179825912e-04
 38         1.5720977905e-03
 39        -1.0118198274e-03
 40        -4.2476804551e-04
 41        -5.9606851266e-05
 42         4.6351008095e-04
 43        -3.5838209236e-04
 44         2.6940988967e-04
 45        -7.2133675008e-04
 46        -6.7131682033e-04
 47         1.0401190531e-03
 48        -6.1943710284e-03
 49        -8.7891063986e-04
 50         5.5880994491e-04
 51         2.1122788521e-04
 52         1.3714161141e-03
 53        -9.5269542294e-04
 54         9.6504521598e-04
 55        -2.6705472699e-04
 56        -2.6726091750e-04
 57         1.3843376995e-04
 58         3.7640330829e-04
 59        -8.1484321249e-04
 60         2.6730547446e-04
 61         1.8254821686e-03
 62        -8.7615702968e-05
 63        -1.5644746462e-04
 64         5.4194597917e-05
 65         2.6406133970e-04
 66         1.8127811032e-03
 67         1.0480133378e-04
 68         1.3434602836e-04
 69         7.8882131754e-05
 70         2.6666053831e-04
 71         1.8334763859e-03
 72         1.2357912706e-04
 73         1.3575170488e-04
 74        -5.0394868152e-05
 75         2.5941705791e-04
 76         1.8018555821e-03
 77        -6.2374194965e-05
 78        -1.6632908324e-04
 79        -7.7572918978e-05
 Sym= A
 Ene=        -2.5553482601e+00
 Spin= Alpha
 Occup=         1.0000000000e+00
  1        -7.4024817104e-04
  2         2.7447190807e-03
  3        -6.4536650877e-03
  4         1.6902002621e-03
  5        -3.7179709562e-03
  6         3.3230889611e-01
  7        -2.2241429059e-01
  8         5.1062038944e-02
  9        -8.8035009449e-01
 10         5.8921835924e-01
 11        -1.3527364584e-01
 12        -1.0606930370e-02
 13         7.0973851232e-03
 14        -1.6329587305e-03
 15        -8.0941660720e-04
 16         4.0513096030e-04
 17        -3.6743610854e-04
 18         1.0215913405e-03
 19        -2.4624025585e-03
 20        -7.0634096042e-04
 21         1.9925638309e-04
 22        -5.1369535298e-05
 23         7.1584582294e-05
 24        -2.0443450377e-04
 25         3.7280780641e-04
 26         9.1974975554e-04
 27        -5.9723447289e-04
 28        -1.7075780978e-04
 29         6.1701733175e-04
 30         4.8142343035e-04
 31         2.4508650736e-03
 32         2.9618890669e-03
 33        -4.5177688381e-03
 34         7.7523545672e-04
 35         3.9921897952e-03
 36        -2.8489750936e-03
 37         2.8183232508e-03
 38        -3.0835962109e-04
 39         2.1900508106e-04
 40         2.4190995647e-05
 41         7.8710239040e-05
 42        -1.3611865370e-03
 43         9.9286641097e-04
 44        -4.3870638809e-04
 45         1.2978882736e-03
 46         3.0070522792e-03
 47        -4.5988867402e-03
 48         7.6601666367e-04
 49         4.6927177445e-03
 50        -2.9533215587e-03
 51        -1.4936688967e-03
 52        -3.0301779967e-04
 53         1.8189382332e-04
 54        -1.4211758728e-04
 55         7.2376141223e-04
 56         9.4545485196e-04
 57        -5.7935284250e-04
 58        -7.6907879590e-04
 59         1.5835162285e-03
 60        -2.1636699163e-04
 61         1.1491275170e-03
 62         3.7050090538e-06
 63         1.2957733612e-04
 64        -6.8188467435e-05
 65        -2.1242673645e-04
 66         1.1644762506e-03
 67        -1.1291681341e-04
 68        -4.6163333378e-05
 69        -8.3528815619e-05
 70        -2.1774957855e-04
 71         1.1421424642e-03
 72        -1.2976268081e-04
 73        -4.5397866111e-05
 74         4.7958677736e-05
 75        -2.1248694466e-04
 76         1.1714756421e-03
 77        -1.5391615063e-05
 78         1.3550687235e-04
 79         6.3699473414e-05
 Sym= A
 Ene=        -2.5354945469e+00
 Spin= Alpha
 Occup=         1.0000000000e+00
  1        -6.4260426862e-06
  2         2.3725616868e-05
  3        -5.7108992249e-05
  4        -2.3986570558e-06
  5        -6.8379962000e-06
  6        -5.7356608048e-02
  7         5.9732187053e-03
  8         3.9930554432e-01
  9         1.5196795247e-01
 10        -1.5826008802e-02
 11        -1.0579745799e+00
 12         1.5461630201e-03
 13        -1.5698544759e-04
 14        -1.0831330327e-02
 15         9.0133379940e-04
 16         3.1991193957e-03
 17        -2.1902173575e-03
 18        -4.3853572930e-04
 19         3.6858304311e-04
 20         2.2019528389e-04
 21         7.7455121776e-04
 22        -5.3037233704e-04
 23        -1.0753295229e-04
 24         9.0538708033e-05
 25        -3.1993787664e-04
 26        -7.5365622081e-05
 27         3.2366108362e-04
 28        -6.5533776728e-04
 29         1.5246439579e-03
 30         8.7798653399e-05
 31        -2.8407052998e-04
 32         1.3070692868e-03
 33        -1.8806585682e-03
 34        -6.9658963552e-03
 35         2.4532525772e-03
 36        -1.6671102637e-03
 37         6.9059545545e-04
 38        -1.9221667760e-04
 39        -1.9406219862e-04
 40         3.8106425778e-03
 41         4.8957220985e-04
 42        -5.1239231093e-04
 43         3.4115602437e-04
 44        -3.1751242674e-04
 45         8.3849444113e-04
 46        -1.3072442298e-03
 47         1.8836840492e-03
 48         6.9815464020e-03
 49        -2.5449618529e-03
 50         1.6731462142e-03
 51        -1.0062449607e-04
 52        -8.9485423973e-04
 53         3.1012217474e-04
 54         3.6965816363e-03
 55        -6.5573968905e-04
 56        -7.2590666547e-05
 57         5.7953586339e-05
 58         4.0087369772e-04
 59        -9.0600563193e-04
 60         7.0046571207e-05
 61         7.1635569124e-04
 62        -3.8940587865e-05
 63         1.7466965868e-04
 64        -1.9274600652e-04
 65         6.8024186376e-05
 66         7.0643139139e-04
 67        -1.6005448016e-04
 68        -1.1353774025e-05
 69        -2.0712350295e-04
 70        -6.7411716105e-05
 71        -6.9958671314e-04
 72         2.1168251445e-04
 73         6.8150436390e-06
 74        -1.5121099505e-04
 75        -7.4555324715e-05
 76        -7.2162488267e-04
 77         9.2554610075e-05
 78        -1.8026628842e-04
 79        -1.6647851445e-04
 Sym= A
 Ene=        -2.5167913323e+00
 Spin= Alpha
 Occup=         1.0000000000e+00
  1         1.1276558798e-06
  2        -4.1218497852e-06
  3         1.0201466109e-05
  4         3.5191826599e-06
  5        -4.4041538610e-06
  6         2.2102999533e-01
  7         3.3637586519e-01
  8         2.6717599550e-02
  9        -5.8563970448e-01
 10        -8.9125974327e-01
 11        -7.0790847218e-02
 12        -7.1335527815e-03
 13        -1.0856783728e-02
 14        -8.6689112515e-04
 15         4.1873287459e-05
 16         3.3535210084e-04
 17         1.9597801564e-04
 18         2.3910928675e-03
 19         1.0061785448e-03
 20         2.3904825209e-05
 21         1.8814244092e-04
 22         1.1021178564e-04
 23         1.3674040101e-03
 24         5.7474958944e-04
 25        -1.2687928559e-04
 26        -4.4402526224e-04
 27        -6.2124159421e-04
 28        -3.8146131174e-04
 29         1.7152418718e-04
 30        -2.7383471794e-03
 31         5.0251678075e-04
 32        -6.3569619994e-07
 33        -1.0195310488e-06
 34         4.0343600434e-05
 35        -4.2972042005e-04
 36        -6.5093856606e-04
 37        -5.2950719085e-05
 38        -2.7581235362e-04
 39        -4.2190747610e-04
 40        -4.9792815027e-05
 41         3.7426292103e-05
 42         2.1840627991e-04
 43         2.4378759340e-04
 44         6.6408049725e-04
 45         2.6383873890e-04
 46         3.0182615185e-06
 47         2.4451166201e-06
 48        -6.1592634025e-05
 49        -4.2930423438e-04
 50        -6.6478386953e-04
 51        -5.3875455946e-05
 52        -2.8507140501e-04
 53        -4.4643193162e-04
 54        -4.7885178182e-05
 55        -1.3700836644e-05
 56        -2.8105282701e-05
 57        -1.4247084454e-04
 58         7.1570297187e-04
 59         3.2148882346e-04
 60        -1.6491119566e-05
 61         1.2637010707e-03
 62        -1.8597915680e-04
 63         1.8345376506e-04
 64        -1.3735846948e-04
 65         1.3716072166e-05
 66        -1.2706823823e-03
 67         2.3217263347e-04