[Molden Format]
[Title]
generated by TRESC, real part2 of MOs of job SCN
 
[Atoms] AU
 S   1  16    0.0000000000    0.0000000000    1.9184736755
 C   2   6    0.0000000000    0.0000000000   -1.1567057569
 N   3   7    0.0000000000    0.0000000000   -3.3890492760
[GTO]
  1 0
 s  5 1.0
    10081.3659290000        0.0067330718
     1468.8676987000        0.0423201277
      327.2465016600        0.1866835343
       90.5285201140        0.4849802687
       27.5058308280        0.4517376429
 s  3 1.0
       46.3853988360       -0.0950589434
        5.0228188449        0.5843701906
        2.0306206045        0.5413909427
 s  1 1.0
        0.3606627882        1.0000000000
 s  1 1.0
        0.1371410729        1.0000000000
 p  5 1.0
      604.8788900300        0.0002353489
      140.0897861900        0.0017386166
       44.4994657800        0.0077865988
       16.4748871580        0.0220140918
        6.5229645048        0.0378945448
 p  5 1.0
      270.9504306400        0.0092081513
       62.5377853170        0.0653131413
       19.3546142200        0.2445470601
        6.7163477485        0.4820783852
        2.4098646724        0.3917477785
 p  1 1.0
        0.6191509478        1.0000000000
 p  1 1.0
        0.1701457548        1.0000000000
 d  1 1.0
        0.5500000000        1.0000000000
 
  2 0
 s  5 1.0
     1231.7975026000        0.0058423196
      185.5974766200        0.0415113222
       42.0875016200        0.1832849990
       11.6300369400        0.4683526005
        3.5840894779        0.4430601820
 s  1 1.0
        0.4029351893        1.0000000000
 s  1 1.0
        0.1309419451        1.0000000000
 p  3 1.0
        9.4821246358        0.0381720490
        2.0121097169        0.2099973699
        0.5481253660        0.5104097902
 p  1 1.0
        0.1527756940        1.0000000000
 d  1 1.0
        0.8000000000        1.0000000000
 
  3 0
 s  5 1.0
     1706.0150550000        0.0058639453
      255.9938356800        0.0413450288
       58.1565771970        0.1820914202
       16.1430707430        0.4678591214
        4.9963209539        0.4434151324
 s  1 1.0
        0.5882550288        1.0000000000
 s  1 1.0
        0.1877013255        1.0000000000
 p  3 1.0
       13.5897862110        0.0400190920
        2.9274822154        0.2175789499
        0.7994670210        0.5117738303
 p  1 1.0
        0.2195247995        1.0000000000
 d  1 1.0
        1.0000000000        1.0000000000
 
[5D]
[7F]
[9G]
[MO]
 Ene=   0.61079868397656E+00
 Spin= Alpha
 Occup=    0.000000
   1     -0.000000010880
   2      0.000000081693
   3     -0.000000400171
   4      0.000003357338
   5      0.000000092509
   6      0.033443876362
   7     -0.000000039244
   8      0.000017917570
   9     -0.261546061543
  10      0.000000251728
  11     -0.000063891278
  12      0.774270177007
  13     -0.000000757770
  14      0.000058244700
  15     -0.652212932876
  16     -0.000000947013
  17      0.000000265245
  18      0.000048994623
  19     -0.744555966497
  20      0.000000160722
  21      0.000004747312
  22     -0.000000055283
  23      0.000001023635
  24     -0.000000879440
  25      0.000010615467
  26     -0.118455978185
  27      0.000000363262
  28     -0.000004050576
  29     -0.048290816474
  30     -0.000004357702
  31      0.000000175745
  32     -0.000008083599
  33      0.114057792950
  34      0.000000027498
  35      0.000000252485
  36      0.000000146494
  37     -0.000000714054
  38     -0.000002358784
  39     -0.000011281434
  40      0.210487003290
  41      0.000000570574
  42      0.000003292584
  43     -0.064373679470
  44     -0.000001351257
  45     -0.000000070269
  46      0.000001031043
  47     -0.014735462665
  48      0.000000002825
  49     -0.000000016103
 Ene=   0.61812602760690E+00
 Spin= Alpha
 Occup=    0.000000
   1     -0.000029923240
   2      0.000219806237
   3     -0.001206040319
   4      0.009057211964
   5     -0.000000005399
   6      0.000000032312
   7     -0.000472516849
   8      0.000000003168
   9     -0.000000159636
  10      0.000880904300
  11      0.000000012443
  12      0.000000419473
  13     -0.001024274946
  14     -0.000000034786
  15     -0.000000328786
  16     -0.004017230297
  17      0.000985608998
  18     -0.000000011491
  19     -0.000000440928
  20      0.000888092005
  21     -0.000846949007
  22      0.000434994303
  23     -0.001445242332
  24     -0.002031793727
  25     -0.000000088914
  26     -0.000000045469
  27      0.002465959872
  28      0.000000090209
  29     -0.000000080260
  30     -0.011385341287
  31      0.000437814453
  32      0.000000001757
  33      0.000000067945
  34      0.000048732956
  35     -0.000048356275
  36     -0.000234185653
  37      0.000782983337
  38     -0.006630163923
  39     -0.000000000337
  40      0.000000127472
  41      0.000871171856
  42     -0.000000004611
  43     -0.000000019905
  44      0.000287143430
  45     -0.000371869078
  46     -0.000000001784
  47     -0.000000012809
  48      0.000013037688
  49     -0.000000907127
 Ene=   0.62544515425858E+00
 Spin= Alpha
 Occup=    0.000000
   1      0.000009642637
   2     -0.000071642242
   3      0.000378758955
   4     -0.002191668847
   5      0.000000004093
   6     -0.000000063226
   7      0.000154735821
   8     -0.000000007971
   9      0.000000223090
  10     -0.000243176626
  11      0.000000010386
  12     -0.000000507072
  13      0.000169617428
  14     -0.000000002038
  15      0.000000366545
  16      0.001035870043
  17     -0.000287874606
  18      0.000000000576
  19      0.000000651827
  20     -0.000019755602
  21     -0.001242783974
  22     -0.000183738773
  23      0.000906204641
  24      0.000597307395
  25      0.000000025010
  26      0.000000060076
  27     -0.000824616504
  28     -0.000000027212
  29      0.000000142248
  30      0.002543975209
  31     -0.000111205808
  32      0.000000001105
  33     -0.000000094889
  34     -0.000000798380
  35     -0.000073667570
  36      0.000146376032
  37     -0.000547481523
  38      0.001411653255
  39     -0.000000004479
  40     -0.000000218627
  41     -0.000123767586
  42      0.000000009429
  43      0.000000067845
  44     -0.000694740670
  45      0.000119761985
  46      0.000000000801
  47      0.000000012036
  48     -0.000004954580
  49     -0.000000702669
 Ene=   0.63329146755448E+00
 Spin= Alpha
 Occup=    0.000000
   1      0.000222389360
   2     -0.001661072514
   3     -0.040354904026
   4      0.921802605839
   5      0.000000051682
   6     -0.000000082900
   7     -0.002497411487
   8     -0.000000062865
   9      0.000000268604
  10      0.019126317689
  11      0.000000024113
  12     -0.000000569823
  13     -0.057869665295
  14     -0.000000015881
  15      0.000000390349
  16     -0.461132803304
  17     -0.003877447654
  18     -0.000000083332
  19      0.000000954794
  20     -0.019644313385
  21     -0.000123417198
  22     -0.084293154938
  23      0.684765098912
  24     -0.287675746173
  25     -0.000000021488
  26      0.000000133912
  27     -0.106050636522
  28      0.000000060290
  29      0.000000150177
  30     -1.241201192424
  31      0.012196525888
  32      0.000000010787
  33     -0.000000119481
  34     -0.001432075769
  35     -0.000006684987
  36      0.093272225888
  37     -0.378053666116
  38     -0.763585218992
  39      0.000000081509
  40     -0.000000453976
  41      0.157892101740
  42     -0.000000155639
  43      0.000000226271
  44     -0.774289746342
  45      0.015089159467
  46      0.000000009595
  47      0.000000017137
  48     -0.001771752145
  49     -0.000000412097
 Ene=   0.63938346571530E+00
 Spin= Alpha
 Occup=    0.000000
   1      0.000000003432
   2     -0.000000025185
   3      0.000000127025
   4     -0.000000722722
   5      0.000000012298
   6      0.000241368924
   7     -0.000000004264
   8      0.000000064248
   9     -0.000121484178
  10     -0.000000008488
  11     -0.000000290699
  12     -0.000649365696
  13      0.000000036227
  14      0.000000284740
  15      0.000899065463
  16      0.000000323308
  17     -0.000000060046
  18     -0.000000171625
  19     -0.001494902849
  20     -0.000000013135
  21     -0.000000217736
  22     -0.000000005672
  23     -0.000000065374
  24      0.000000234856
  25     -0.000000016750
  26      0.000066628560
  27     -0.000000133694
  28     -0.000000019385
  29     -0.000454659233
  30      0.000000833788
  31     -0.000000031229
  32      0.000000000891
  33      0.000102620237
  34     -0.000000003529
  35     -0.000000018143
  36      0.000000003277
  37     -0.000000010818
  38      0.000000496000
  39      0.000000234836
  40      0.001416876234
  41     -0.000000081288
  42     -0.000000280286
  43     -0.001404151556
  44      0.000000115323
  45      0.000000017354
  46      0.000000002074
  47      0.000012008789
  48      0.000000004604
  49     -0.000000036130
 Ene=   0.64016428221013E+00
 Spin= Alpha
 Occup=    0.000000
   1      0.000000001724
   2     -0.000000012684
   3      0.000000073295
   4     -0.000000516637
   5     -0.000000040627
   6      0.000143824209
   7      0.000000003998
   8      0.000000046814
   9     -0.000429094845
  10     -0.000000011706
  11      0.000000026641
  12      0.000885801935
  13      0.000000017914
  14     -0.000000080455
  15     -0.000691571223
  16      0.000000251551
  17     -0.000000030419
  18      0.000000348639
  19     -0.001331914304
  20     -0.000000004306
  21     -0.000000082456
  22      0.000000006361
  23     -0.000000110066
  24      0.000000177019
  25      0.000000021736
  26     -0.000154045988
  27     -0.000000064344
  28      0.000000068046
  29     -0.000021051991
  30      0.000000613196
  31     -0.000000016621
  32     -0.000000032845
  33      0.000180207250
  34     -0.000000001215
  35     -0.000000007175
  36     -0.000000008361
  37      0.000000035994
  38      0.000000360623
  39     -0.000000270498
  40      0.000749591835
  41     -0.000000060870
  42      0.000000245679
  43     -0.000662854173
  44      0.000000144554
  45      0.000000008165
  46      0.000000003761
  47     -0.000010910989
  48      0.000000002146
  49     -0.000000015630
 Ene=   0.64648077889257E+00
 Spin= Alpha
 Occup=    0.000000
   1     -0.000000000730
   2      0.000000005445
   3     -0.000000040341
   4      0.000000359852
   5     -0.000000010190
   6     -0.000011300997
   7     -0.000000009758
   8     -0.000000052218
   9      0.000047230553
  10      0.000000014852
  11      0.000000241265
  12     -0.000119261309
  13     -0.000000007875
  14     -0.000000248833
  15      0.000109531953
  16     -0.000000189672
  17      0.000000016742
  18      0.000000118873
  19      0.000117623566
  20      0.000000001692
  21      0.000000005369
  22     -0.000000005802
  23      0.000000078482
  24     -0.000000131001
  25     -0.000000007100
  26      0.000010966366
  27      0.000000039149
  28      0.000000054527
  29     -0.000027097434
  30     -0.000000435057
  31      0.000000008231
  32      0.000000002196
  33     -0.000017127840
  34      0.000000000063
  35      0.000000000697
  36      0.000000006704
  37     -0.000000029158
  38     -0.000000252118
  39     -0.000000170630
  40     -0.000083342432
  41      0.000000032587
  42      0.000000182826
  43      0.000095358027
  44     -0.000000093372
  45     -0.000000004716
  46     -0.000000000564
  47     -0.000000947118
  48     -0.000000000511
  49      0.000000002455
 Ene=   0.70825171670179E+00
 Spin= Alpha
 Occup=    0.000000
   1     -0.000000022355
   2      0.000000159660
   3     -0.000000937337
   4      0.000006518378
   5     -0.000509593102
   6     -0.001386394954
   7      0.000000000791
   8      0.004681448601
   9     -0.009405764066
  10     -0.000000138066
  11     -0.014600245444
  12      0.040126778759
  13      0.000000445038
  14      0.014482574204
  15     -0.042250521138
  16     -0.000003622974
  17      0.000000133019
  18     -0.007316841398
  19      0.029021313192
  20     -0.000000021289
  21      0.000000694024
  22     -0.000000157457
  23      0.000001305441
  24     -0.000003644763
  25      0.000003691429
  26      0.000599626335
  27      0.000001025400
  28     -0.003795160862
  29      0.013399515897
  30     -0.000007061263
  31      0.000000030128
  32     -0.000122722890
  33     -0.000768733611
  34      0.000000036339
  35      0.000000061771
  36     -0.000000051373
  37      0.000000226282
  38     -0.000003828511
  39      0.009092113688
  40     -0.030351130885
  41     -0.000000033091
  42     -0.008382499195
  43      0.026508179831
  44     -0.000000239547
  45     -0.000000082825
  46     -0.000032563366
  47      0.000256459383
  48     -0.000000012111
  49      0.000000080775
 Ene=   0.72485326927440E+00
 Spin= Alpha
 Occup=    0.000000
   1     -0.001660659188
   2      0.012479759416
   3     -0.178128574769
   4      2.036861634314
   5     -0.000000238708
   6     -0.000000167670
   7      0.004042469459
   8      0.000001089164
   9      0.000002607979
  10     -0.075117812980
  11     -0.000002904186
  12     -0.000008638622
  13      0.243805347101
  14      0.000002776594
  15      0.000008520822
  16     -1.317802695323
  17     -0.018897768638
  18     -0.000001277332
  19     -0.000004644108
  20     -0.013407171132
  21     -0.000026472974
  22     -0.072755111601
  23      0.476241178012
  24     -1.217298418866
  25     -0.000000043515
  26     -0.000000129596
  27      0.258865628182
  28     -0.000000652405
  29     -0.000002041902
  30     -2.297398871181
  31     -0.033999860367
  32     -0.000000041074
  33     -0.000000047482
  34     -0.000948934523
  35     -0.000001352408
  36     -0.002955204914
  37      0.024475159411
  38     -1.234124619472
  39      0.000001627388
  40      0.000005773749
  41     -0.109943139264
  42     -0.000001504749
  43     -0.000005394720
  44     -0.049332456137
  45     -0.013098999347
  46     -0.000000016939
  47     -0.000000023968
  48      0.000398264865
  49      0.000000172854
 Ene=   0.72762942165977E+00
 Spin= Alpha
 Occup=    0.000000
   1      0.000000027794
   2     -0.000000172823
   3      0.000000447657
   4      0.000000122594
   5     -0.000104165355
   6     -0.006319584847
   7     -0.000000028458
   8      0.000458467372
   9      0.073191489778
  10     -0.000000029058
  11     -0.001185284705
  12     -0.234342637215
  13      0.000000245417
  14      0.001101388131
  15      0.228629414069
  16     -0.000000607108
  17     -0.000000092575
  18     -0.000436647320
  19     -0.118493998612
  20     -0.000000034754
  21     -0.000000426471
  22     -0.000000038927
  23      0.000000120612
  24     -0.000000330606
  25     -0.000022781642
  26     -0.003794609084
  27     -0.000000091094
  28     -0.000181258864
  29     -0.050718630765
  30     -0.000000516284
  31     -0.000000065383
  32     -0.000033739601
  33     -0.002354291729
  34     -0.000000031671
  35     -0.000000040996
  36      0.000000055631
  37     -0.000000268547
  38     -0.000000046771
  39      0.000684020146
  40      0.154134121935
  41     -0.000000125356
  42     -0.000685506656
  43     -0.146115807779
  44      0.000000007881
  45      0.000000014785
  46      0.000000098348
  47     -0.000421823450
  48      0.000000004115
  49     -0.000000055464
 Ene=   0.72997291479513E+00
 Spin= Alpha
 Occup=    0.000000
   1      0.000000068211
   2     -0.000000386333
   3      0.000000203535
   4      0.000009998043
   5     -0.000068641012
   6     -0.029862414474
   7      0.000000060626
   8      0.000285327021
   9      0.281466205912
  10     -0.000000624582
  11     -0.000719329265
  12     -0.876284480733
  13      0.000001943383
  14      0.000663947882
  15      0.847385318679
  16     -0.000007647106
  17     -0.000000244386
  18     -0.000252730577
  19     -0.424955475715
  20     -0.000000189653
  21     -0.000000202884
  22     -0.000000414116
  23      0.000002442359
  24     -0.000007243870
  25     -0.000005487900
  26     -0.016451539278
  27      0.000001406852
  28     -0.000111073857
  29     -0.176578181698
  30     -0.000011886082
  31     -0.000000261568
  32     -0.000022551952
  33     -0.011445655299
  34     -0.000000030739
  35     -0.000000028600
  36      0.000000048250
  37     -0.000000296081
  38     -0.000005423374
  39      0.000412084623
  40      0.569111680911
  41     -0.000000704435
  42     -0.000415201033
  43     -0.545381958977
  44      0.000000212505
  45     -0.000000060236
  46      0.000001313734
  47     -0.001317010747
  48      0.000000009927
  49     -0.000000076412
 Ene=   0.73649567615296E+00
 Spin= Alpha
 Occup=    0.000000
   1      0.000049291595
   2     -0.000364865420
   3      0.009617256089
   4     -0.130074607268
   5      0.000000023595
   6      0.000000026616
   7     -0.001623804411
   8     -0.000000135950
   9     -0.000000106586
  10      0.006947534810
  11      0.000000388263
  12      0.000000263594
  13     -0.016979772955
  14     -0.000000370818
  15     -0.000000220546
  16      0.085230093868
  17      0.002819059299
  18      0.000000115227
  19      0.000000054454
  20      0.000956411549
  21      0.000057709869
  22      0.005408311060
  23     -0.033275002281
  24      0.080896920769
  25     -0.000000108892
  26      0.000000016778
  27     -0.016255132226
  28      0.000000116709
  29     -0.000000024364
  30      0.148217813353
  31      0.003097857596
  32      0.000000023855
  33      0.000000013922
  34      0.000067377351
  35      0.000004552224
  36      0.000230661831
  37     -0.002090677457
  38      0.079808659326
  39     -0.000000270112
  40     -0.000000158471
  41      0.010348131483
  42      0.000000306892
  43      0.000000199575
  44      0.000481569533
  45      0.000573612756
  46     -0.000000026662
  47      0.000000000097
  48     -0.000021435606
  49     -0.000000601875
 Ene=   0.74416277529486E+00
 Spin= Alpha
 Occup=    0.000000
   1      0.000000682184
   2     -0.000002425696
   3      0.002172619525
   4     -0.034717020713
   5     -0.000000017684
   6      0.000000025048
   7     -0.000704952137
   8      0.000000054877
   9     -0.000000069733
  10      0.002248190999
  11     -0.000000118193
  12      0.000000136777
  13     -0.004691330688
  14      0.000000105007
  15     -0.000000103639
  16      0.022868743098
  17      0.001076537115
  18     -0.000000043179
  19     -0.000000001439
  20      0.000337275537
  21     -0.000113377355
  22      0.001597745143
  23     -0.009494949031
  24      0.022117382028
  25     -0.000000044589
  26      0.000000013647
  27     -0.004259348663
  28     -0.000000004559
  29     -0.000000035089
  30      0.039988063424
  31      0.001003205554
  32      0.000000002495
  33      0.000000012806
  34      0.000024539113
  35     -0.000009473711
  36      0.000057514909
  37     -0.000610249075
  38      0.021615396697
  39      0.000000029954
  40     -0.000000072564
  41      0.003430780910
  42     -0.000000007347
  43      0.000000108106
  44     -0.000342028736
  45      0.000100572242
  46     -0.000000015864
  47     -0.000000005931
  48     -0.000005464174
  49      0.000001392700
 Ene=   0.85207053742949E+00
 Spin= Alpha
 Occup=    0.000000
   1      0.000000003752
   2     -0.000000028975
   3      0.000000192404
   4     -0.000000463533
   5      0.000003648612
   6     -0.000935113309
   7     -0.000000017381
   8     -0.000030958315
   9     -0.002134466640
  10      0.000000106805
  11      0.000101921836
  12      0.012861129889
  13     -0.000000358421
  14     -0.000161548782
  15     -0.023324793300
  16      0.000000619626
  17     -0.000000135189
  18      0.000091701915
  19      0.015288562293
  20     -0.000000011364
  21      0.000000149054
  22     -0.000000042246
  23      0.000000196621
  24      0.000000049152
  25     -0.000048765121
  26     -0.007398730944
  27     -0.000000046648
  28      0.000244832974
  29      0.038700044455
  30      0.000000285777
  31     -0.000000018428
  32     -0.000030772797
  33     -0.005189092079
  34      0.000000026157
  35     -0.000000006287
  36      0.000000012042
  37     -0.000000075007
  38      0.000000236757
  39      0.000155163384
  40      0.024853129742
  41     -0.000000238454
  42     -0.000286965886
  43     -0.046172253200
  44      0.000000261752
  45      0.000000008497
  46      0.000010826943
  47      0.001724951771
  48      0.000000025317
  49     -0.000000105320
 Ene=   0.86664172269674E+00
 Spin= Alpha
 Occup=    0.000000
   1     -0.000000017426
   2      0.000000093191
   3     -0.000000301136
   4      0.000000873167
   5      0.000010802494
   6     -0.016923864639
   7      0.000000001434
   8     -0.000050080534
   9      0.155489978444
  10     -0.000000043991
  11      0.000140039036
  12     -0.514168127095
  13      0.000000174232
  14     -0.000204690767
  15      0.789648683611
  16     -0.000000616328
  17      0.000000119318
  18      0.000109078301
  19     -0.450054124398
  20     -0.000000007449
  21     -0.000000090501
  22      0.000000011749
  23      0.000000035745
  24      0.000000041650
  25     -0.000056963378
  26      0.223219061998
  27      0.000000021232
  28      0.000288464495
  29     -1.156066450864
  30     -0.000000900141
  31      0.000000017789
  32     -0.000036247968
  33      0.150136698943
  34     -0.000000021987
  35      0.000000016151
  36     -0.000000021661
  37      0.000000183547
  38     -0.000000951836
  39      0.000180294800
  40     -0.725206477394
  41      0.000000133343
  42     -0.000333283360
  43      1.345722409691
  44     -0.000000397615
  45      0.000000001458
  46      0.000012984303
  47     -0.052166394554
  48     -0.000000021603
  49      0.000000123537
 Ene=   0.87168313827009E+00
 Spin= Alpha
 Occup=    0.000000
   1     -0.000177976209
   2      0.001366402089
   3     -0.006790451458
   4      0.008922478209
   5     -0.000000024407
   6     -0.000000013838
   7     -0.000332947759
   8      0.000000078619
   9      0.000000072206
  10     -0.001895040566
  11     -0.000000187010
  12     -0.000000212440
  13      0.008865848402
  14      0.000000244436
  15      0.000000313562
  16     -0.011160251767
  17      0.003503726639
  18     -0.000000141115
  19     -0.000000163039
  20      0.000161964770
  21      0.000028912311
  22      0.001217689639
  23     -0.005572627636
  24     -0.005111893157
  25     -0.000000001574
  26      0.000000095408
  27      0.003218219774
  28     -0.000000267446
  29     -0.000000454078
  30      0.000695067795
  31      0.000704651292
  32      0.000000029064
  33      0.000000060549
  34      0.000011806583
  35      0.000005698844
  36     -0.000691527488
  37      0.002711766239
  38      0.002633243468
  39     -0.000000150604
  40     -0.000000291027
  41      0.007210392323
  42      0.000000314383
  43      0.000000531415
  44     -0.003505734741
  45     -0.000504502914
  46      0.000000003124
  47     -0.000000030742
  48      0.000021780580
  49     -0.000001293341
 Ene=   0.87682170438924E+00
 Spin= Alpha
 Occup=    0.000000
   1      0.000135111794
   2     -0.001037733172
   3      0.005195939594
   4     -0.007215483433
   5     -0.000000003505
   6      0.000000006983
   7      0.000163667915
   8      0.000000010210
   9     -0.000000067316
  10      0.001599529482
  11     -0.000000023389
  12      0.000000231857
  13     -0.006920038139
  14      0.000000034102
  15     -0.000000389853
  16      0.008847433889
  17     -0.002673262670
  18      0.000000003447
  19      0.000000216336
  20     -0.000152140069
  21      0.000047986017
  22     -0.000901719714
  23      0.004104971063
  24      0.004188733943
  25      0.000000046838
  26     -0.000000127470
  27     -0.002477297030
  28     -0.000000072337
  29      0.000000639075
  30     -0.000071743961
  31     -0.000517266995
  32      0.000000009898
  33     -0.000000087721
  34     -0.000015621171
  35      0.000010321217
  36      0.000523586215
  37     -0.002062933714
  38     -0.001756894425
  39     -0.000000059417
  40      0.000000460778
  41     -0.005462292538
  42      0.000000082155
  43     -0.000000801600
  44      0.002700378461
  45      0.000383312363
  46     -0.000000012398
  47      0.000000030166
  48     -0.000015224145
  49     -0.000001917099
 Ene=   0.90163412545656E+00
 Spin= Alpha
 Occup=    0.000000
   1      0.005673284723
   2     -0.043698198506
   3      0.227086679184
   4     -0.389544615417
   5      0.000000058817
   6     -0.000000034568
   7     -0.010700591612
   8     -0.000000080088
   9      0.000000139689
  10      0.098098975565
  11      0.000000043572
  12     -0.000000298307
  13     -0.325919682102
  14      0.000000030480
  15      0.000000333433
  16      0.444267967818
  17     -0.118860363086
  18      0.000000019755
  19     -0.000000109758
  20     -0.004918656131
  21     -0.000004785439
  22     -0.034321034631
  23      0.150918527948
  24      0.228215850616
  25      0.000000084172
  26      0.000000035963
  27     -0.107548587505
  28     -0.000000176031
  29     -0.000000232089
  30      0.086832954170
  31     -0.019457187242
  32      0.000000033023
  33      0.000000009466
  34     -0.000420243968
  35     -0.000000126625
  36      0.021604836444
  37     -0.087406609177
  38     -0.021061725637
  39     -0.000000204129
  40     -0.000000024561
  41     -0.229521758089
  42      0.000000269858
  43      0.000000151575
  44      0.126325977334
  45      0.016281559208
  46     -0.000000017867
  47     -0.000000002872
  48     -0.000680099648
  49      0.000000135978
 Ene=   0.90928784153279E+00
 Spin= Alpha
 Occup=    0.000000
   1     -0.000000004330
   2      0.000000028680
   3     -0.000000032620
   4     -0.000000125456
   5      0.000323607148
   6     -0.003046163434
   7      0.000000005982
   8     -0.000721571040
   9      0.007527205097
  10     -0.000000007714
  11      0.001217201027
  12     -0.014138447602
  13     -0.000000072289
  14     -0.001325963319
  15      0.016069688113
  16      0.000000329251
  17     -0.000000091513
  18      0.000488215647
  19     -0.006485426563
  20     -0.000000014444
  21      0.000000232948
  22     -0.000000025739
  23      0.000000155303
  24     -0.000000180419
  25     -0.000231602814
  26      0.002955512250
  27      0.000000160622
  28      0.001277266470
  29     -0.016404329817
  30      0.000000176646
  31     -0.000000002413
  32     -0.000134892973
  33      0.001858135570
  34      0.000000049767
  35      0.000000007396
  36     -0.000000031901
  37      0.000000131461
  38      0.000000145569
  39      0.000700772798
  40     -0.009107038984
  41     -0.000000049955
  42     -0.001334822253
  43      0.017378933240
  44      0.000000186494
  45     -0.000000005852
  46      0.000065964705
  47     -0.000825695804
  48      0.000000018738
  49     -0.000000086299
 Ene=   0.10478875470258E+01
 Spin= Alpha
 Occup=    0.000000
   1     -0.005126962315
   2      0.039400992806
   3     -0.113206642670
   4     -1.789808782068
   5     -0.000000033735
   6      0.000000049622
   7     -0.000045725122
   8      0.000000037215
   9     -0.000000102054
  10     -0.005011302077
  11     -0.000000024960
  12      0.000000131187
  13      0.024580894972
  14      0.000000041501
  15     -0.000000134665
  16      1.078960966979
  17     -0.220176263361
  18     -0.000000047014
  19      0.000000042079
  20     -0.003899570049
  21     -0.000003061589
  22      0.043886837065
  23     -0.670529980251
  24     -1.151903963539
  25      0.000000021115
  26      0.000000009090
  27      0.145808603089
  28     -0.000000115531
  29      0.000000039694
  30      3.490930872888
  31     -0.068365332596
  32      0.000000036503
  33      0.000000025304
  34      0.000289638736
  35      0.000000314228
  36      0.075561115125
  37     -0.724434651239
  38      4.348961294870
  39     -0.000000131163
  40     -0.000000103848
  41      0.035534567209
  42      0.000000184857
  43      0.000000035438
  44      1.426387790104
  45     -0.022235306644
  46     -0.000000010360
  47     -0.000000004075
  48      0.000917361820
  49      0.000001245818
 Ene=   0.10553515378039E+01
 Spin= Alpha
 Occup=    0.000000
   1      0.000000000673
   2     -0.000000005245
   3      0.000000027149
   4     -0.000000011375
   5      0.000002808925
   6      0.000125043588
   7      0.000000017464
   8     -0.000004679836
   9     -0.000213411522
  10     -0.000000019363
  11      0.000004818840
  12      0.000231431599
  13     -0.000000003925
  14     -0.000003458571
  15     -0.000170938112
  16      0.000000006907
  17     -0.000000022971
  18     -0.000000230878
  19     -0.000006033675
  20      0.000000000148
  21     -0.000000008942
  22     -0.000000005704
  23      0.000000029371
  24      0.000000041909
  25      0.000001512745
  26      0.000065793922
  27      0.000000003744
  28      0.000000587292
  29      0.000039030701
  30     -0.000000054286
  31     -0.000000007356
  32     -0.000000175021
  33     -0.000008624959
  34     -0.000000003612
  35      0.000000004478
  36     -0.000000001644
  37      0.000000019719
  38     -0.000000087701
  39      0.000003212040
  40      0.000152493281
  41     -0.000000022804
  42     -0.000003607636
  43     -0.000175573138
  44     -0.000000011175
  45      0.000000002667
  46      0.000000994178
  47      0.000044114623
  48     -0.000000003588
  49      0.000000020441
 Ene=   0.12404975370862E+01
 Spin= Alpha
 Occup=    0.000000
   1     -0.000201278264
   2      0.005805463305
   3     -0.256040525101
   4      0.918697397463
   5      0.000000053562
   6      0.000000030867
   7      0.014792975265
   8     -0.000000091274
   9     -0.000000046392
  10     -0.014155753803
  11      0.000000089264
  12      0.000000040874
  13      0.065278598494
  14     -0.000000062631
  15     -0.000000032013
  16     -0.674708172324
  17      0.393374464854
  18      0.000000014604