[Molden Format]
[Title]
generated by TRESC, real part1 of MOs of job SCN
 
[Atoms] AU
 S   1  16    0.0000000000    0.0000000000    1.9184736755
 C   2   6    0.0000000000    0.0000000000   -1.1567057569
 N   3   7    0.0000000000    0.0000000000   -3.3890492760
[GTO]
  1 0
 s  5 1.0
    10081.3659290000        0.0067330718
     1468.8676987000        0.0423201277
      327.2465016600        0.1866835343
       90.5285201140        0.4849802687
       27.5058308280        0.4517376429
 s  3 1.0
       46.3853988360       -0.0950589434
        5.0228188449        0.5843701906
        2.0306206045        0.5413909427
 s  1 1.0
        0.3606627882        1.0000000000
 s  1 1.0
        0.1371410729        1.0000000000
 p  5 1.0
      604.8788900300        0.0002353489
      140.0897861900        0.0017386166
       44.4994657800        0.0077865988
       16.4748871580        0.0220140918
        6.5229645048        0.0378945448
 p  5 1.0
      270.9504306400        0.0092081513
       62.5377853170        0.0653131413
       19.3546142200        0.2445470601
        6.7163477485        0.4820783852
        2.4098646724        0.3917477785
 p  1 1.0
        0.6191509478        1.0000000000
 p  1 1.0
        0.1701457548        1.0000000000
 d  1 1.0
        0.5500000000        1.0000000000
 
  2 0
 s  5 1.0
     1231.7975026000        0.0058423196
      185.5974766200        0.0415113222
       42.0875016200        0.1832849990
       11.6300369400        0.4683526005
        3.5840894779        0.4430601820
 s  1 1.0
        0.4029351893        1.0000000000
 s  1 1.0
        0.1309419451        1.0000000000
 p  3 1.0
        9.4821246358        0.0381720490
        2.0121097169        0.2099973699
        0.5481253660        0.5104097902
 p  1 1.0
        0.1527756940        1.0000000000
 d  1 1.0
        0.8000000000        1.0000000000
 
  3 0
 s  5 1.0
     1706.0150550000        0.0058639453
      255.9938356800        0.0413450288
       58.1565771970        0.1820914202
       16.1430707430        0.4678591214
        4.9963209539        0.4434151324
 s  1 1.0
        0.5882550288        1.0000000000
 s  1 1.0
        0.1877013255        1.0000000000
 p  3 1.0
       13.5897862110        0.0400190920
        2.9274822154        0.2175789499
        0.7994670210        0.5117738303
 p  1 1.0
        0.2195247995        1.0000000000
 d  1 1.0
        1.0000000000        1.0000000000
 
[5D]
[7F]
[9G]
[MO]
 Ene=  -0.89184064177267E+02
 Spin= Alpha
 Occup=    1.000000
   1     -0.864924689278
   2     -0.019549512693
   3      0.008583067025
   4     -0.002745594554
   5     -0.000000003183
   6      0.000000020835
   7     -0.000541164817
   8      0.000000000221
   9     -0.000000026985
  10      0.000752611350
  11      0.000000000216
  12      0.000000002905
  13     -0.000754409588
  14     -0.000000001519
  15     -0.000000006190
  16     -0.000552600585
  17      0.000393877242
  18     -0.000000001881
  19      0.000000000336
  20      0.000000323566
  21     -0.000000020242
  22      0.000110864181
  23      0.000204935253
  24      0.003199872513
  25      0.000000000283
  26     -0.000000000118
  27     -0.000324989611
  28      0.000000000201
  29      0.000000002393
  30     -0.004481007259
  31     -0.000883898478
  32     -0.000000000102
  33      0.000000000007
  34     -0.000000012686
  35      0.000000002581
  36     -0.000102366436
  37      0.001195645032
  38     -0.006036587311
  39     -0.000000000302
  40     -0.000000000534
  41      0.000392439974
  42      0.000000000171
  43     -0.000000001489
  44     -0.001986685397
  45      0.000094355453
  46      0.000000000130
  47     -0.000000000111
  48     -0.000000013251
  49      0.000000006597
 Ene=  -0.89179297081033E+02
 Spin= Alpha
 Occup=    0.000000
   1      0.000000000772
   2     -0.000000000053
   3      0.000000000299
   4     -0.000000000064
   5      0.000000451524
   6      0.000000259353
   7     -0.000000012614
   8     -0.000000372921
   9     -0.000000214369
  10      0.000000010488
  11      0.000000066874
  12      0.000000038225
  13     -0.000000002096
  14     -0.000000022417
  15     -0.000000012798
  16      0.000000000712
  17      0.000000000159
  18     -0.000000010150
  19     -0.000000005424
  20     -0.000000000002
  21      0.000000000001
  22      0.000000000077
  23     -0.000000000171
  24      0.000000000722
  25      0.000000002658
  26      0.000000001573
  27     -0.000000000020
  28      0.000000005317
  29      0.000000003028
  30     -0.000000000577
  31     -0.000000000487
  32     -0.000000015949
  33     -0.000000009283
  34     -0.000000000002
  35     -0.000000000001
  36     -0.000000000049
  37      0.000000000382
  38     -0.000000000939
  39     -0.000000003352
  40     -0.000000001963
  41      0.000000000375
  42     -0.000000003578
  43     -0.000000002034
  44     -0.000000000350
  45      0.000000000131
  46     -0.000000000467
  47     -0.000000000214
  48      0.000000000001
  49      0.000000000004
 Ene=  -0.14381403439178E+02
 Spin= Alpha
 Occup=    1.000000
   1      0.000016915246
   2     -0.000145794061
   3      0.000685864683
   4      0.003784664491
   5     -0.000000002313
   6      0.000000011336
   7     -0.000257683186
   8      0.000000003696
   9     -0.000000006669
  10      0.000323981144
  11     -0.000000000757
  12      0.000000000856
  13     -0.000376090904
  14      0.000000000455
  15     -0.000000000573
  16     -0.002160510215
  17      0.000320431482
  18     -0.000000000384
  19     -0.000000000031
  20      0.000000010884
  21      0.000000045588
  22      0.000105069318
  23      0.000631188436
  24      0.006425197706
  25     -0.000000000126
  26      0.000000000121
  27      0.001100520919
  28      0.000000000361
  29      0.000000000691
  30     -0.010004533621
  31     -0.000914990325
  32      0.000000000172
  33     -0.000000000426
  34     -0.000001927413
  35     -0.000000025917
  36      0.316584839304
  37      0.014564488309
  38     -0.017743496123
  39      0.000000001249
  40     -0.000000002425
  41      0.001615663376
  42     -0.000000001076
  43     -0.000000001172
  44     -0.004860223973
  45      0.000389082697
  46      0.000000000484
  47     -0.000000000212
  48      0.000030850387
  49     -0.000000340270
 Ene=  -0.14373607809869E+02
 Spin= Alpha
 Occup=    0.000000
   1      0.000000000035
   2     -0.000000000124
   3      0.000000000137
   4      0.000000000414
   5     -0.000000049306
   6      0.000000336608
   7      0.000000003132
   8      0.000000024181
   9     -0.000000163460
  10      0.000000000706
  11     -0.000000006210
  12      0.000000041939
  13     -0.000000000291
  14      0.000000008934
  15     -0.000000059376
  16     -0.000000000238
  17      0.000000000196
  18     -0.000000004098
  19      0.000000028781
  20      0.000000000012
  21     -0.000000000049
  22      0.000000000107
  23     -0.000000000516
  24      0.000000000364
  25      0.000000016589
  26     -0.000000117661
  27      0.000000000656
  28     -0.000000020719
  29      0.000000137941
  30     -0.000000000797
  31     -0.000000000863
  32      0.000000017382
  33     -0.000000111696
  34     -0.000000000005
  35      0.000000000026
  36     -0.000000000181
  37      0.000000000724
  38     -0.000000000902
  39     -0.000000063701
  40      0.000000437597
  41      0.000000002250
  42      0.000000033696
  43     -0.000000225743
  44     -0.000000000828
  45      0.000000000355
  46     -0.000000019274
  47      0.000000171484
  48      0.000000000027
  49     -0.000000000622
 Ene=  -0.10278678244270E+02
 Spin= Alpha
 Occup=    0.000000
   1      0.000000000001
   2     -0.000000000007
   3      0.000000000025
   4     -0.000000000028
   5      0.000000013706
   6      0.000001018526
   7     -0.000000002525
   8     -0.000000001612
   9     -0.000000120315
  10      0.000000000115
  11      0.000000001355
  12      0.000000101309
  13     -0.000000000318
  14     -0.000000000459
  15     -0.000000033410
  16      0.000000000124
  17      0.000000000033
  18      0.000000000456
  19      0.000000034211
  20     -0.000000000002
  21      0.000000000008
  22     -0.000000000094
  23     -0.000000000049
  24      0.000000000043
  25     -0.000000000506
  26     -0.000000042872
  27     -0.000000000007
  28      0.000000000535
  29      0.000000041568
  30      0.000000000006
  31     -0.000000000070
  32     -0.000000004662
  33     -0.000000328868
  34     -0.000000000005
  35      0.000000000004
  36      0.000000000001
  37      0.000000000045
  38     -0.000000000016
  39     -0.000000001217
  40     -0.000000091642
  41      0.000000000041
  42      0.000000000232
  43      0.000000016524
  44     -0.000000000008
  45      0.000000000058
  46      0.000000002947
  47      0.000000218789
  48      0.000000000022
  49      0.000000000003
 Ene=  -0.10276256546464E+02
 Spin= Alpha
 Occup=    1.000000
   1     -0.000086160161
   2      0.000707357130
   3     -0.001686803560
   4      0.022962696016
   5     -0.000000012614
   6      0.000000000729
   7      0.002294526563
   8      0.000000005974
   9      0.000000001058
  10     -0.002906444314
  11     -0.000000000451
  12      0.000000000707
  13      0.002728079863
  14      0.000000001446
  15      0.000000000059
  16     -0.011489677835
  17     -0.002214124819
  18     -0.000000000209
  19     -0.000000000032
  20      0.000000521915
  21     -0.000000006161
  22      0.973065233912
  23      0.048925211164
  24     -0.003904143727
  25     -0.000000000434
  26     -0.000000000524
  27     -0.001388629654
  28     -0.000000002170
  29     -0.000000000142
  30     -0.038668974746
  31      0.004332933700
  32      0.000000000180
  33      0.000000000144
  34     -0.000007883796
  35     -0.000000007311
  36     -0.000499154654
  37      0.000725484822
  38     -0.041706994496
  39     -0.000000000480
  40     -0.000000000042
  41     -0.002191660210
  42      0.000000004752
  43      0.000000000757
  44     -0.017298246653
  45     -0.001359414797
  46     -0.000000001301
  47      0.000000000442
  48      0.000002097215
  49      0.000000009879
 Ene=  -0.80219432662506E+01
 Spin= Alpha
 Occup=    1.000000
   1      0.307773747128
   2     -1.019638967363
   3     -0.052606462621
   4      0.013010475664
   5      0.000000495917
   6      0.000000424483
   7      0.000198861062
   8     -0.000000923740
   9     -0.000001477077
  10      0.007576020557
  11      0.000000117952
  12      0.000000037544
  13      0.002487266899
  14     -0.000000124014
  15     -0.000000193383
  16      0.002367074714
  17     -0.001401740327
  18     -0.000000049531
  19      0.000000008677
  20     -0.000407892305
  21     -0.000000092522
  22     -0.000127008964
  23     -0.000792537475
  24     -0.011005044867
  25      0.000000000163
  26      0.000000000112
  27      0.001473890112
  28      0.000000025496
  29      0.000000073652
  30      0.015728138789
  31      0.001824365682
  32     -0.000000008220
  33     -0.000000010681
  34      0.000011404106
  35     -0.000000000056
  36      0.000262707862
  37     -0.003223161958
  38      0.020512925413
  39     -0.000000076240
  40     -0.000000179628
  41     -0.000737426330
  42      0.000000010044
  43     -0.000000028988
  44      0.006631179013
  45     -0.000060074732
  46     -0.000000003931
  47     -0.000000007512
  48     -0.000000814535
  49      0.000000111112
 Ene=  -0.80175609939434E+01
 Spin= Alpha
 Occup=    0.000000
   1     -0.000000000864
   2      0.000000003019
   3     -0.000000000179
   4      0.000000000278
   5     -0.000040139250
   6      0.000002887880
   7      0.000000019444
   8     -0.000024300093
   9      0.000001722601
  10      0.000000020864
  11     -0.000004407679
  12      0.000000314175
  13      0.000000002548
  14      0.000001575389
  15     -0.000000113772
  16     -0.000000000832
  17     -0.000000000223
  18      0.000000025683
  19      0.000000001854
  20      0.000000000062
  21      0.000000000035
  22     -0.000000000191
  23      0.000000000287
  24     -0.000000000879
  25      0.000000001763
  26     -0.000000000001
  27      0.000000000315
  28     -0.000000397121
  29      0.000000029361
  30      0.000000000156
  31      0.000000000249
  32      0.000000200189
  33     -0.000000013840
  34     -0.000000000007
  35     -0.000000000015
  36     -0.000000000040
  37     -0.000000000147
  38      0.000000000666
  39      0.000000034128
  40     -0.000000002293
  41      0.000000000388
  42      0.000000180199
  43     -0.000000013199
  44      0.000000000263
  45     -0.000000000213
  46      0.000000050238
  47     -0.000000003543
  48     -0.000000000050
  49      0.000000000050
 Ene=  -0.59729785990694E+01
 Spin= Alpha
 Occup=    0.694799
   1      0.000000102531
   2     -0.000000302682
   3     -0.000000235785
   4      0.000000015450
   5     -0.005142079379
   6      0.010929674654
   7     -0.000000002193
   8     -0.266434682812
   9      0.441149599400
  10      0.000002514440
  11     -0.015122097515
  12      0.024789446623
  13      0.000000151353
  14      0.002854939886
  15     -0.004719278096
  16      0.000000134219
  17      0.000000038455
  18      0.000080438933
  19     -0.000135279562
  20     -0.000000001033
  21      0.000000068576
  22     -0.000000007966
  23      0.000000006632
  24     -0.000000376871
  25      0.000093292827
  26     -0.000151555913
  27      0.000000033275
  28     -0.000668559405
  29      0.001108066442
  30      0.000000338936
  31      0.000000002563
  32      0.000200876818
  33     -0.000323536910
  34     -0.000000028444
  35     -0.000000005344
  36     -0.000000008719
  37     -0.000000034725
  38      0.000000497091
  39     -0.000006756493
  40      0.000012645640
  41      0.000000005950
  42      0.000292690764
  43     -0.000484550441
  44      0.000000210430
  45     -0.000000009417
  46      0.000086429666
  47     -0.000140776006
  48     -0.000000003600
  49      0.000000001762
 Ene=  -0.59683838973072E+01
 Spin= Alpha
 Occup=    0.416300
   1     -0.001711070544
   2      0.006199551162
   3     -0.002206292481
   4      0.000527344221
   5     -0.000000011620
   6     -0.000000001145
   7      0.011901185036
   8      0.000000335236
   9     -0.000000069329
  10      0.603875387283
  11      0.000000032561
  12     -0.000000003330
  13      0.035750327804
  14     -0.000000005955
  15      0.000000003235
  16     -0.006233811986
  17     -0.001392451560
  18     -0.000000001698
  19      0.000000000220
  20      0.000006013042
  21      0.000000011631
  22     -0.000164757018
  23      0.000401391045
  24     -0.005600239475
  25     -0.000000099599
  26      0.000000000269
  27      0.000963162904
  28      0.000000019814
  29     -0.000000007574
  30      0.004329426715
  31      0.002038984236
  32      0.000000003467
  33      0.000000002787
  34     -0.000002587991
  35      0.000000029042
  36      0.000149851083
  37     -0.001669208204
  38      0.006915356299
  39     -0.000000004017
  40      0.000000002109
  41     -0.000702352349
  42      0.000000026712
  43      0.000000003617
  44      0.002150444421
  45     -0.000349493627
  46      0.000000007593
  47      0.000000016871
  48      0.000000311237
  49     -0.000000002160
 Ene=  -0.59251177479349E+01
 Spin= Alpha
 Occup=    0.534436
   1     -0.000000088805
   2      0.000000271671
   3      0.000000131869
   4     -0.000000066900
   5     -0.001789794601
   6     -0.000025589589
   7     -0.000000015844
   8     -0.692453996640
   9     -0.003340983996
  10     -0.000003325284
  11     -0.038837178820
  12     -0.000185741874
  13     -0.000000238447
  14      0.007115087375
  15      0.000034485816
  16      0.000000052420
  17      0.000000012519
  18      0.000219597724
  19      0.000001060343
  20     -0.000000000232
  21     -0.000000001019
  22      0.000000008152
  23     -0.000000020480
  24      0.000000082679
  25      0.000231259982
  26      0.000001112227
  27     -0.000000009143
  28     -0.001653411096
  29     -0.000008024763
  30     -0.000000031174
  31     -0.000000028016
  32      0.000504003470
  33      0.000002376330
  34     -0.000000000288
  35      0.000000001194
  36     -0.000000000746
  37      0.000000026088
  38     -0.000000079906
  39     -0.000014613151
  40     -0.000000079489
  41      0.000000013192
  42      0.000723025514
  43      0.000003492768
  44     -0.000000036160
  45      0.000000017788
  46      0.000215225091
  47      0.000001024578
  48      0.000000002890
  49     -0.000000005901
 Ene=  -0.59209102495994E+01
 Spin= Alpha
 Occup=    0.580139
   1     -0.001930987769
   2      0.006999275033
   3     -0.002468287055
   4      0.000517963280
   5     -0.000000002844
   6     -0.000000002804
   7      0.002174504044
   8     -0.000000940725
   9     -0.000000761766
  10      0.707088982038
  11     -0.000000057545
  12     -0.000000039646
  13      0.041274176064
  14      0.000000013702
  15      0.000000007511
  16     -0.006944558609
  17     -0.001592167877
  18      0.000000000996
  19      0.000000000936
  20      0.000007106710
  21     -0.000000009992
  22     -0.000160721205
  23      0.000423203787
  24     -0.006231976281
  25      0.000000026978
  26      0.000000000748
  27      0.001080556567
  28     -0.000000012130
  29     -0.000000000746
  30      0.004908600793
  31      0.002233054154
  32     -0.000000000562
  33     -0.000000000859
  34     -0.000003041268
  35     -0.000000010640
  36      0.000163912501
  37     -0.001838636369
  38      0.007765362309
  39     -0.000000005636
  40     -0.000000013470
  41     -0.000762279374
  42     -0.000000002256
  43      0.000000002936
  44      0.002411064604
  45     -0.000378049565
  46     -0.000000001859
  47     -0.000000004314
  48      0.000000360599
  49      0.000000003538
 Ene=  -0.59172381230365E+01
 Spin= Alpha
 Occup=    0.770765
   1      0.000000185239
   2     -0.000000592519
   3     -0.000000259327
   4      0.000000081698
   5      0.000034294028
   6      0.003476640125
   7      0.000000009404
   8     -0.140296596032
   9      0.668751817260
  10      0.000000847515
  11     -0.007862191953
  12      0.037050822695
  13      0.000000061527
  14      0.001437483184
  15     -0.006812774860
  16     -0.000000005740
  17     -0.000000015174
  18      0.000044430727
  19     -0.000216823245
  20     -0.000000001358
  21     -0.000000006082
  22     -0.000000002376
  23     -0.000000003768
  24     -0.000000060116
  25      0.000047004309
  26     -0.000217382814
  27      0.000000004172
  28     -0.000333188228
  29      0.001585166944
  30      0.000000101104
  31      0.000000020614
  32      0.000101960775
  33     -0.000470179532
  34      0.000000002736
  35      0.000000000717
  36      0.000000007504
  37     -0.000000031571
  38      0.000000127895
  39     -0.000003111688
  40      0.000015962574
  41     -0.000000009912
  42      0.000145505785
  43     -0.000692116354
  44      0.000000028303
  45     -0.000000002282
  46      0.000043415206
  47     -0.000202865423
  48      0.000000000585
  49      0.000000000219
 Ene=  -0.59111541420389E+01
 Spin= Alpha
 Occup=    0.003561
   1     -0.000144568307
   2      0.000524061914
   3     -0.000184438513
   4      0.000037549539
   5     -0.000000001086
   6     -0.000000001013
   7     -0.000015767165
   8     -0.000000017354
   9     -0.000000114282
  10      0.053337486528
  11     -0.000000001311
  12     -0.000000006133
  13      0.003104622702
  14      0.000000000483
  15      0.000000001164
  16     -0.000518454340
  17     -0.000119521087
  18      0.000000000050
  19      0.000000000214
  20      0.000000401638
  21     -0.000000060720
  22     -0.000011633569
  23      0.000031197925
  24     -0.000465153792
  25      0.000000004177
  26      0.000000000272
  27      0.000080784140
  28     -0.000000001189
  29     -0.000000000225
  30      0.000367845095
  31      0.000166090020
  32     -0.000000000216
  33     -0.000000000050
  34     -0.000000242681
  35     -0.000000007321
  36      0.000012186619
  37     -0.000136928889
  38      0.000580736675
  39     -0.000000000401
  40     -0.000000001355
  41     -0.000056582677
  42     -0.000000000832
  43      0.000000000377
  44      0.000180254166
  45     -0.000028040243
  46     -0.000000000534
  47     -0.000000000626
  48      0.000000022602
  49     -0.000000001360
 Ene=  -0.93737920531454E+00
 Spin= Alpha
 Occup=    1.000000
   1     -0.006485351798
   2      0.039650501594
   3     -0.054895279890
   4     -0.029604655550
   5      0.000000070723
   6     -0.000000034173
   7     -0.000759909429
   8     -0.000000072381
   9      0.000000013573
  10     -0.009280378508
  11     -0.000000059340
  12      0.000000026274
  13      0.015721030301
  14     -0.000000005542
  15      0.000000043237
  16      0.015892650208
  17     -0.005853312787
  18      0.000000013120
  19     -0.000000002569
  20     -0.001107824706
  21     -0.000000168167
  22      0.079241608351
  23     -0.156262338725
  24     -0.029848901628
  25      0.000000000827
  26      0.000000014277
  27      0.068620378406
  28      0.000000001114
  29     -0.000000011687
  30      0.022720056142
  31     -0.010890150687
  32     -0.000000000924
  33      0.000000000677
  34     -0.000317746026
  35     -0.000000052287
  36      0.090966482109
  37     -0.182646121022
  38     -0.046982049857
  39      0.000000030612
  40      0.000000064970
  41     -0.078880577781
  42     -0.000000013457
  43      0.000000034038
  44     -0.004293553991
  45     -0.006544733698
  46     -0.000000002340
  47      0.000000001952
  48     -0.001364234657
  49      0.000000196821
 Ene=  -0.92187262244229E+00
 Spin= Alpha
 Occup=    0.000000
   1      0.000000003551
   2     -0.000000021826
   3      0.000000029553
   4     -0.000000002048
   5      0.000061406444
   6      0.000241056274
   7      0.000000086364
   8     -0.000061212371
   9     -0.000244969356
  10     -0.000000073803
  11     -0.000040756846
  12     -0.000151130834
  13     -0.000000080323
  14     -0.000014769024
  15     -0.000052916911
  16      0.000000001820
  17      0.000000008181
  18      0.000001847935
  19      0.000007034569
  20      0.000000000364
  21      0.000000005381
  22     -0.000000012473
  23      0.000000026965
  24     -0.000000027139
  25     -0.000014585827
  26     -0.000057600268
  27      0.000000028894
  28      0.000006188266
  29      0.000023745814
  30      0.000000039802
  31     -0.000000000520
  32      0.000000206929
  33      0.000000982255
  34     -0.000000001495
  35     -0.000000000606
  36      0.000000003159
  37     -0.000000009984
  38      0.000000043452
  39      0.000033076346
  40      0.000126290085
  41      0.000000001118
  42     -0.000003363946
  43     -0.000013971494
  44      0.000000015088
  45      0.000000000665
  46      0.000001410401
  47      0.000005310636
  48      0.000000002314
  49     -0.000000016488
 Ene=  -0.81664695585292E+00
 Spin= Alpha
 Occup=    0.999999
   1      0.016048624216
   2     -0.099031897974
   3      0.141513252393
   4      0.055139547764
   5     -0.000000035863
   6      0.000000002587
   7      0.001420289606
   8      0.000000044860
   9      0.000000049082
  10      0.013701045216
  11      0.000000083955
  12      0.000000008056
  13     -0.024796627222
  14     -0.000000027415
  15     -0.000000101728
  16     -0.014062527771
  17      0.006493742594
  18     -0.000000019028
  19      0.000000004723
  20      0.003014834347
  21     -0.000001165104
  22     -0.015167860874
  23      0.032645987709
  24      0.001750473460
  25     -0.000000006310
  26     -0.000000023793
  27      0.061416067323
  28      0.000000009760
  29      0.000000021532
  30      0.010036648452
  31      0.002883938296
  32      0.000000002197
  33      0.000000001016
  34      0.000027466218
  35      0.000000048084
  36      0.020895519170
  37     -0.043639244313
  38     -0.012098560160
  39     -0.000000017584
  40     -0.000000100957
  41     -0.015165930933
  42     -0.000000005368
  43     -0.000000039710
  44      0.000280954286
  45     -0.001225454094
  46     -0.000000000911
  47     -0.000000003069
  48     -0.000313061400
  49      0.000000349551
 Ene=  -0.79374369210272E+00
 Spin= Alpha
 Occup=    0.000001
   1     -0.000000000981
   2      0.000000005160
   3     -0.000000000997
   4      0.000000029683
   5      0.000109891069
   6     -0.000645287022
   7     -0.000000095490
   8     -0.000101368277
   9      0.000613012895
  10      0.000000099572
  11     -0.000086558349
  12      0.000474517464
  13      0.000000067203
  14     -0.000032261799
  15      0.000166515973
  16     -0.000000040327
  17     -0.000000013794
  18      0.000002477171
  19     -0.000013343205
  20     -0.000000000008
  21     -0.000000015418
  22      0.000000013408
  23     -0.000000031128
  24      0.000000077554
  25      0.000010588245
  26     -0.000066144993
  27     -0.000000015420
  28     -0.000004415444
  29      0.000026876120
  30     -0.000000099201
  31     -0.000000003276
  32     -0.000001877122
  33      0.000010630946
  34      0.000000004326
  35      0.000000000297
  36      0.000000010172
  37     -0.000000013884
  38     -0.000000130130
  39     -0.000008738178
  40      0.000048967168
  41      0.000000006478
  42      0.000001306888
  43     -0.000009109733
  44     -0.000000048041
  45     -0.000000000095
  46     -0.000000839717
  47      0.000004656540
  48      0.000000000697
  49     -0.000000005409
 Ene=  -0.50126656356610E+00
 Spin= Alpha
 Occup=    0.999962
   1     -0.029707445568
   2      0.188847604149
   3     -0.268189060203
   4     -0.259808825313
   5     -0.000000224718
   6     -0.000000250129
   7      0.016217120816
   8      0.000000084166
   9     -0.000000054202
  10      0.109590269287
  11      0.000000233742
  12      0.000000452261
  13     -0.215551162828
  14      0.000000342836
  15      0.000000672218
  16     -0.174510413433
  17      0.038638723119
  18      0.000000017131
  19     -0.000000066593
  20     -0.008770507420
  21     -0.000000468850
  22     -0.100772598301
  23      0.226210742142
  24      0.090511329100
  25      0.000000145584
  26      0.000000510499
  27      0.154549049238
  28      0.000000047044
  29      0.000000138292
  30      0.094574203091
  31      0.007588240935
  32     -0.000000005030
  33     -0.000000009707
  34      0.000169416841
  35      0.000000090854
  36      0.055629763428
  37     -0.125718723439
  38     -0.038004985007
  39      0.000000348102
  40      0.000000721928
  41      0.040094588471
  42      0.000000166033
  43      0.000000360812
  44      0.040998863483
  45      0.003149534890
  46      0.000000021206
  47      0.000000046709
  48     -0.000903994136
  49     -0.000000190972
 Ene=  -0.48716919721310E+00
 Spin= Alpha
 Occup=    0.000082
   1      0.000000000492
   2     -0.000000002260
   3     -0.000000007361
   4     -0.000000152263
   5     -0.000074490090
   6      0.001869779390
   7      0.000000128171
   8      0.000015045931
   9     -0.000779025424
  10     -0.000000110028
  11      0.000149551054
  12     -0.003038048529
  13     -0.000000143675
  14      0.000123661982
  15     -0.002329382020
  16      0.000000186891
  17      0.000000041240
  18     -0.000010519691
  19      0.000198676044
  20     -0.000000001073
  21      0.000000052122
  22     -0.000000007952
  23      0.000000027641
  24     -0.000000290775
  25      0.000057752278
  26     -0.001028944321
  27      0.000000059161
  28      0.000026614220
  29     -0.000491567119
  30      0.000000399586
  31      0.000000003286
  32      0.000003796539
  33     -0.000086943400
  34     -0.000000013002
  35     -0.000000001490
  36     -0.000000038254
  37      0.000000056282
  38      0.000000528593
  39      0.000032390418
  40     -0.000485063230
  41     -0.000000070496
  42      0.000014734555
  43     -0.000207581259
  44      0.000000151318
  45     -0.000000000831
  46      0.000003581667
  47     -0.000060688174
  48      0.000000001108
  49     -0.000000004750
 Ene=  -0.42354060470853E+00
 Spin= Alpha
 Occup=    0.999924
   1      0.000000022094
   2     -0.000000137396
   3      0.000000182566
   4      0.000000415106
   5     -0.000055039804
   6     -0.002004809828
   7     -0.000000001858
   8     -0.000413935269
   9     -0.002204198534
  10     -0.000000065636
  11      0.000831043836
  12      0.008389680882
  13      0.000000136063
  14      0.000914832460
  15      0.008246257232
  16     -0.000000132392
  17     -0.000000073561
  18     -0.000149757731
  19     -0.001249780143
  20      0.000000007359
  21     -0.000000048025
  22      0.000000150747
  23     -0.000000357186
  24      0.000000085556
  25      0.001243826870
  26      0.010575818230
  27     -0.000000045550
  28      0.000646249492
  29      0.005309930482
  30     -0.000000469156
  31     -0.000000003146
  32     -0.000017437087
  33     -0.000047886292
  34      0.000000011721
  35     -0.000000000587
  36     -0.000000118933
  37      0.000000269676
  38     -0.000000167107
  39      0.001137165891
  40      0.008938519402
  41     -0.000000307466
  42      0.000583205370
  43      0.004316994596
  44     -0.000000306159
  45     -0.000000023983
  46      0.000087648183
  47      0.000695602073
  48      0.000000010015
  49     -0.000000032611
 Ene=  -0.40724430026011E+00
 Spin= Alpha
 Occup=    0.999900
   1      0.000000162455
   2     -0.000000857855
   3      0.000000286907
   4      0.000002170946
   5      0.000006771840
   6     -0.016266212886
   7     -0.000000055902
   8     -0.000008152481
   9     -0.111230682393
  10     -0.000000407770
  11     -0.000001958213
  12      0.223760198839
  13      0.000000843140
  14      0.000002177266
  15      0.245067891254
  16      0.000000632032
  17     -0.000000158138
  18     -0.000001496777