[Molden Format]
[Title]
generated by TRESC, imaginary part2 of MOs of job SCN
 
[Atoms] AU
 S   1  16    0.0000000000    0.0000000000    1.9184736755
 C   2   6    0.0000000000    0.0000000000   -1.1567057569
 N   3   7    0.0000000000    0.0000000000   -3.3890492760
[GTO]
  1 0
 s  5 1.0
    10081.3659290000        0.0067330718
     1468.8676987000        0.0423201277
      327.2465016600        0.1866835343
       90.5285201140        0.4849802687
       27.5058308280        0.4517376429
 s  3 1.0
       46.3853988360       -0.0950589434
        5.0228188449        0.5843701906
        2.0306206045        0.5413909427
 s  1 1.0
        0.3606627882        1.0000000000
 s  1 1.0
        0.1371410729        1.0000000000
 p  5 1.0
      604.8788900300        0.0002353489
      140.0897861900        0.0017386166
       44.4994657800        0.0077865988
       16.4748871580        0.0220140918
        6.5229645048        0.0378945448
 p  5 1.0
      270.9504306400        0.0092081513
       62.5377853170        0.0653131413
       19.3546142200        0.2445470601
        6.7163477485        0.4820783852
        2.4098646724        0.3917477785
 p  1 1.0
        0.6191509478        1.0000000000
 p  1 1.0
        0.1701457548        1.0000000000
 d  1 1.0
        0.5500000000        1.0000000000
 
  2 0
 s  5 1.0
     1231.7975026000        0.0058423196
      185.5974766200        0.0415113222
       42.0875016200        0.1832849990
       11.6300369400        0.4683526005
        3.5840894779        0.4430601820
 s  1 1.0
        0.4029351893        1.0000000000
 s  1 1.0
        0.1309419451        1.0000000000
 p  3 1.0
        9.4821246358        0.0381720490
        2.0121097169        0.2099973699
        0.5481253660        0.5104097902
 p  1 1.0
        0.1527756940        1.0000000000
 d  1 1.0
        0.8000000000        1.0000000000
 
  3 0
 s  5 1.0
     1706.0150550000        0.0058639453
      255.9938356800        0.0413450288
       58.1565771970        0.1820914202
       16.1430707430        0.4678591214
        4.9963209539        0.4434151324
 s  1 1.0
        0.5882550288        1.0000000000
 s  1 1.0
        0.1877013255        1.0000000000
 p  3 1.0
       13.5897862110        0.0400190920
        2.9274822154        0.2175789499
        0.7994670210        0.5117738303
 p  1 1.0
        0.2195247995        1.0000000000
 d  1 1.0
        1.0000000000        1.0000000000
 
[5D]
[7F]
[9G]
[MO]
 Ene=   0.61079868397656E+00
 Spin= Alpha
 Occup=    0.000000
   1     -0.000000003023
   2      0.000000031831
   3     -0.000000224670
   4      0.000000610695
   5     -0.003059844615
   6      0.000041838218
   7      0.000000011895
   8      0.008941903122
   9     -0.000328830493
  10     -0.000000102202
  11     -0.017768575267
  12      0.000974325529
  13      0.000000337893
  14      0.011444513435
  15     -0.000820936240
  16     -0.000000614037
  17     -0.000000004225
  18      0.026954422083
  19     -0.000935592553
  20      0.000000025834
  21     -0.000000092758
  22      0.000000099764
  23     -0.000000821329
  24     -0.000000948558
  25      0.002093324371
  26     -0.000149024722
  27      0.000000484492
  28      0.007491367325
  29     -0.000060195770
  30     -0.000000081431
  31     -0.000000029065
  32     -0.003672211030
  33      0.000143397086
  34      0.000000000354
  35     -0.000000007429
  36     -0.000000169425
  37      0.000000654900
  38      0.000000329456
  39     -0.009601290359
  40      0.000264207379
  41     -0.000000332702
  42      0.002980119356
  43     -0.000080697637
  44      0.000001370084
  45     -0.000000073054
  46      0.000484112771
  47     -0.000018522486
  48     -0.000000011748
  49     -0.000000006397
 Ene=   0.61812602760690E+00
 Spin= Alpha
 Occup=    0.000000
   1      0.000191318298
   2     -0.001405360096
   3      0.007710956356
   4     -0.057908637698
   5      0.000000007215
   6      0.000000005082
   7      0.003021076580
   8      0.000000028279
   9      0.000000005582
  10     -0.005632212055
  11     -0.000000132319
  12     -0.000000041029
  13      0.006549012929
  14      0.000000198312
  15      0.000000030150
  16      0.025684623910
  17     -0.006301706769
  18      0.000000336170
  19     -0.000000068065
  20     -0.005677108996
  21     -0.000134365294
  22     -0.002781266742
  23      0.009240776148
  24      0.012990380588
  25      0.000000523553
  26     -0.000000044114
  27     -0.015766655402
  28     -0.000000419351
  29      0.000000051234
  30      0.072794070579
  31     -0.002799264366
  32     -0.000000038457
  33      0.000000002029
  34     -0.000311521718
  35     -0.000007629149
  36      0.001497349174
  37     -0.005006304330
  38      0.042391101023
  39     -0.000000123954
  40      0.000000061701
  41     -0.005569908928
  42      0.000000087158
  43     -0.000000094204
  44     -0.001836279683
  45      0.002377633859
  46      0.000000029473
  47      0.000000010025
  48     -0.000083355700
  49     -0.000000166515
 Ene=   0.62544515425858E+00
 Spin= Alpha
 Occup=    0.000000
   1     -0.000087640017
   2      0.000651143310
   3     -0.003442932256
   4      0.019926984802
   5     -0.000000042870
   6     -0.000000002896
   7     -0.001406248636
   8      0.000000066717
   9     -0.000000003270
  10      0.002209955667
  11     -0.000000045702
  12      0.000000024052
  13     -0.001541214293
  14     -0.000000055887
  15     -0.000000016714
  16     -0.009419162912
  17      0.002615846145
  18      0.000000107124
  19      0.000000022132
  20      0.000181638545
  21     -0.000136495677
  22      0.001668636542
  23     -0.008226533035
  24     -0.005431930216
  25     -0.000000247319
  26      0.000000022813
  27      0.007492202093
  28      0.000000309162
  29     -0.000000027715
  30     -0.023130894633
  31      0.001010611207
  32     -0.000000016643
  33     -0.000000000813
  34      0.000007377921
  35     -0.000008111042
  36     -0.001329054014
  37      0.004970669102
  38     -0.012835869568
  39     -0.000000048738
  40     -0.000000020368
  41      0.001126982915
  42     -0.000000006562
  43      0.000000039114
  44      0.006303563895
  45     -0.001088082069
  46     -0.000000007233
  47     -0.000000007018
  48      0.000044997477
  49     -0.000000064178
 Ene=   0.63329146755448E+00
 Spin= Alpha
 Occup=    0.000000
   1     -0.000432132979
   2      0.003227691480
   3      0.078415146403
   4     -1.791189571823
   5     -0.000000083344
   6     -0.000000040541
   7      0.004852816917
   8      0.000000120684
   9     -0.000000057425
  10     -0.037165075397
  11     -0.000000090988
  12      0.000000368475
  13      0.112448740569
  14      0.000000065680
  15     -0.000000339588
  16      0.896044621036
  17      0.007534411293
  18      0.000000156981
  19     -0.000000198045
  20      0.038171609002
  21     -0.000052528532
  22      0.163793217309
  23     -1.330592969280
  24      0.558993644690
  25      0.000000034872
  26     -0.000000095705
  27      0.206070989245
  28     -0.000000089564
  29      0.000000011666
  30      2.411825065488
  31     -0.023699532828
  32     -0.000000024298
  33      0.000000021850
  34      0.002782719500
  35     -0.000002635883
  36     -0.181240790222
  37      0.734610380152
  38      1.483751365089
  39     -0.000000116147
  40      0.000000049816
  41     -0.306806120170
  42      0.000000233174
  43      0.000000140878
  44      1.504551698613
  45     -0.029320314652
  46     -0.000000017728
  47     -0.000000011287
  48      0.003442753313
  49      0.000000820471
 Ene=   0.63938346571530E+00
 Spin= Alpha
 Occup=    0.000000
   1      0.000000001676
   2     -0.000000013508
   3      0.000000129515
   4     -0.000001176870
   5      0.000234944585
   6     -0.000000028893
   7     -0.000000006192
   8     -0.000058796353
   9      0.000000079778
  10      0.000000020719
  11     -0.000843975863
  12     -0.000000138944
  13     -0.000000052998
  14      0.001078279092
  15      0.000000066507
  16      0.000000679154
  17      0.000000016819
  18     -0.001648914104
  19      0.000000175282
  20     -0.000000003438
  21      0.000000000253
  22      0.000000101833
  23     -0.000000794964
  24      0.000000550462
  25      0.000041770278
  26      0.000000006220
  27      0.000000099780
  28     -0.000450597482
  29      0.000000061826
  30      0.000001357720
  31      0.000000002125
  32      0.000106747244
  33     -0.000000023785
  34      0.000000000369
  35     -0.000000001609
  36     -0.000000097873
  37      0.000000396486
  38      0.000000754926
  39      0.001621337398
  40     -0.000000086975
  41     -0.000000171473
  42     -0.001633905199
  43      0.000000031627
  44      0.000000835045
  45     -0.000000017820
  46      0.000011136263
  47     -0.000000000214
  48      0.000000003542
  49     -0.000000015379
 Ene=   0.64016428221013E+00
 Spin= Alpha
 Occup=    0.000000
   1     -0.000000010316
   2      0.000000076507
   3     -0.000000654731
   4      0.000006898735
   5      0.000048520665
   6      0.000000035715
   7     -0.000000205386
   8      0.000288303416
   9     -0.000000003295
  10      0.000000336243
  11     -0.001252833719
  12     -0.000000155242
  13     -0.000000283735
  14      0.001298804393
  15      0.000000175576
  16     -0.000003551658
  17      0.000000264529
  18     -0.000280047887
  19     -0.000000345840
  20     -0.000000000254
  21      0.000000000418
  22     -0.000000202453
  23      0.000002170918
  24     -0.000002367433
  25      0.000170195136
  26     -0.000000036454
  27      0.000000462358
  28     -0.000379613162
  29     -0.000000029393
  30     -0.000008606523
  31      0.000000153261
  32     -0.000049781585
  33      0.000000023996
  34     -0.000000001052
  35     -0.000000000438
  36      0.000000244377
  37     -0.000001034407
  38     -0.000005041943
  39      0.000639470267
  40      0.000000325133
  41      0.000000755332
  42     -0.000681809875
  43     -0.000000340571
  44     -0.000002579746
  45     -0.000000059969
  46      0.000017598324
  47     -0.000000003033
  48     -0.000000001317
  49     -0.000000005843
 Ene=   0.64648077889257E+00
 Spin= Alpha
 Occup=    0.000000
   1     -0.000000006833
   2      0.000000051129
   3     -0.000000379975
   4      0.000003315368
   5      0.000004331142
   6      0.000000023502
   7     -0.000000116542
   8     -0.000070460680
   9     -0.000000049769
  10      0.000000161289
  11      0.000232688192
  12      0.000000064136
  13     -0.000000052905
  14     -0.000224116489
  15     -0.000000036691
  16     -0.000001770843
  17      0.000000150375
  18     -0.000023563480
  19     -0.000000212160
  20      0.000000015404
  21     -0.000000000264
  22     -0.000000049863
  23      0.000000688252
  24     -0.000001254005
  25     -0.000041462235
  26     -0.000000029047
  27      0.000000375377
  28      0.000047171940
  29     -0.000000003955
  30     -0.000003965773
  31      0.000000069335
  32      0.000017896046
  33      0.000000025380
  34      0.000000000482
  35      0.000000000043
  36      0.000000055967
  37     -0.000000249546
  38     -0.000002263820
  39     -0.000078830822
  40      0.000000144744
  41      0.000000290424
  42      0.000102603426
  43     -0.000000139079
  44     -0.000000804161
  45     -0.000000045981
  46     -0.000005196638
  47     -0.000000002680
  48     -0.000000000024
  49      0.000000001026
 Ene=   0.70825171670179E+00
 Spin= Alpha
 Occup=    0.000000
   1     -0.000000048103
   2      0.000000314989
   3     -0.000002252061
   4      0.000019765374
   5      0.031850450151
   6     -0.000018568631
   7      0.000000083410
   8     -0.292442769808
   9     -0.000183754048
  10     -0.000000659422
  11      0.911977722183
  12      0.000745707360
  13      0.000001980290
  14     -0.904609455104
  15     -0.000778554336
  16     -0.000012255104
  17     -0.000000157889
  18      0.456971214813
  19      0.000516181988
  20     -0.000000201859
  21     -0.000000078055
  22     -0.000000681792
  23      0.000004678403
  24     -0.000011167947
  25     -0.000229173846
  26      0.000009690164
  27      0.000002302821
  28      0.237034720491
  29      0.000240843983
  30     -0.000021919417
  31     -0.000000272288
  32      0.007673258382
  33     -0.000011396666
  34     -0.000000014797
  35     -0.000000000804
  36     -0.000000015536
  37      0.000000244434
  38     -0.000012179255
  39     -0.567879257817
  40     -0.000550351183
  41     -0.000000917947
  42      0.523566406836
  43      0.000484107388
  44     -0.000000984687
  45     -0.000000150623
  46      0.002032367250
  47      0.000004338286
  48     -0.000000009457
  49      0.000000040486
 Ene=   0.72485326927440E+00
 Spin= Alpha
 Occup=    0.000000
   1      0.003597776688
   2     -0.027037087418
   3      0.385911142508
   4     -4.412810361068
   5      0.000000313545
   6     -0.000000108255
   7     -0.008757911315
   8     -0.000001293688
   9      0.000001975479
  10      0.162740883475
  11      0.000003340571
  12     -0.000006568980
  13     -0.528198247565
  14     -0.000003147084
  15      0.000006463800
  16      2.854986948673
  17      0.040941547844
  18      0.000001440189
  19     -0.000003426966
  20      0.029046348701
  21     -0.000004544996
  22      0.157622150759
  23     -1.031764740318
  24      2.637246913696
  25      0.000000116914
  26     -0.000000160799
  27     -0.560825976675
  28      0.000000644895
  29     -0.000001416118
  30      4.977257858795
  31      0.073659856203
  32      0.000000045264
  33     -0.000000052759
  34      0.002055847028
  35     -0.000000054368
  36      0.006402377267
  37     -0.053024823639
  38      2.673700486136
  39     -0.000001853237
  40      0.000004388633
  41      0.238189096489
  42      0.000001760071
  43     -0.000004136862
  44      0.106877550745
  45      0.028378657500
  46      0.000000030891
  47     -0.000000009734
  48     -0.000862826207
  49     -0.000000141353
 Ene=   0.72762942165977E+00
 Spin= Alpha
 Occup=    0.000000
   1     -0.000000015678
   2      0.000000108545
   3     -0.000001129990
   4      0.000011794398
   5      0.003942713240
   6     -0.000167992577
   7     -0.000000177081
   8     -0.017546600449
   9      0.001948095748
  10     -0.000000139947
  11      0.045556383790
  12     -0.006238203930
  13      0.000001245120
  14     -0.042380831037
  15      0.006086090153
  16     -0.000007514952
  17      0.000000087284
  18      0.016922075510
  19     -0.003154778895
  20     -0.000000055069
  21     -0.000000011017
  22     -0.000000310605
  23      0.000002204890
  24     -0.000006467805
  25      0.000868783441
  26     -0.000101055247
  27      0.000001677868
  28      0.007037824437
  29     -0.001350163801
  30     -0.000013441445
  31     -0.000000110547
  32      0.001277843535
  33     -0.000062618553
  34     -0.000000003801
  35     -0.000000002431
  36     -0.000000075727
  37      0.000000399019
  38     -0.000007509229
  39     -0.026369595450
  40      0.004103350108
  41     -0.000000401024
  42      0.026387562622
  43     -0.003889862863
  44     -0.000000273699
  45     -0.000000093017
  46     -0.000001555952
  47     -0.000011237054
  48      0.000000010387
  49     -0.000000029007
 Ene=   0.72997291479513E+00
 Spin= Alpha
 Occup=    0.000000
   1     -0.000000041983
   2      0.000000308012
   3     -0.000004838717
   4      0.000057868563
   5      0.003560279278
   6     -0.000604252070
   7      0.000000165409
   8     -0.015668657589
   9      0.005697009943
  10     -0.000002238458
  11      0.040424963965
  12     -0.017737108023
  13      0.000007026760
  14     -0.037532239597
  15      0.017152119508
  16     -0.000037530823
  17     -0.000000633212
  18      0.014858720136
  19     -0.008602041857
  20     -0.000000380407
  21     -0.000000002976
  22     -0.000002100748
  23      0.000013537704
  24     -0.000034613707
  25      0.000357038501
  26     -0.000333071420
  27      0.000007451359
  28      0.006487829878
  29     -0.003574174814
  30     -0.000065652611
  31     -0.000001044659
  32      0.001176987937
  33     -0.000231625524
  34     -0.000000028480
  35     -0.000000004493
  36     -0.000000141573
  37      0.000001006952
  38     -0.000035559238
  39     -0.023524325969
  40      0.011519760678
  41     -0.000003486921
  42      0.023537385403
  43     -0.011039400223
  44     -0.000000942411
  45     -0.000000340245
  46     -0.000057177581
  47     -0.000026672491
  48      0.000000004585
  49     -0.000000037731
 Ene=   0.73649567615296E+00
 Spin= Alpha
 Occup=    0.000000
   1     -0.000107363329
   2      0.000794723017
   3     -0.020947711279
   4      0.283320684783
   5      0.000000015694
   6      0.000000019618
   7      0.003536881975
   8     -0.000000021120
   9     -0.000000243706
  10     -0.015132700318
  11      0.000000002465
  12      0.000000786915
  13      0.036984290894
  14      0.000000012460
  15     -0.000000806436
  16     -0.185643048635
  17     -0.006140300632
  18      0.000000075310
  19      0.000000440865
  20     -0.002083194214
  21      0.000025679503
  22     -0.011780063915
  23      0.072477654804
  24     -0.176204773388
  25      0.000000240463
  26     -0.000000021039
  27      0.035405905892
  28     -0.000000095174
  29      0.000000293585
  30     -0.322839160674
  31     -0.006747567157
  32     -0.000000025201
  33     -0.000000004934
  34     -0.000146757984
  35      0.000002086438
  36     -0.000502404954
  37      0.004553754914
  38     -0.173834471665
  39      0.000000097121
  40     -0.000000473456
  41     -0.022539683257
  42     -0.000000192494
  43      0.000000363140
  44     -0.001048980476
  45     -0.001249407835
  46      0.000000052129
  47      0.000000016736
  48      0.000046684693
  49     -0.000000269355
 Ene=   0.74416277529486E+00
 Spin= Alpha
 Occup=    0.000000
   1     -0.000001522705
   2      0.000005459857
   3     -0.004813652507
   4      0.076912988812
   5      0.000000021549
   6      0.000000041739
   7      0.001561693725
   8     -0.000000040808
   9     -0.000000269053
  10     -0.004980778635
  11      0.000000049056
  12      0.000000780238
  13      0.010393876537
  14     -0.000000033728
  15     -0.000000755423
  16     -0.050664404400
  17     -0.002384946320
  18      0.000000028303
  19      0.000000347728
  20     -0.000747141658
  21     -0.000051479141
  22     -0.003539621154
  23      0.021034930485
  24     -0.048999817704
  25      0.000000106670
  26     -0.000000007073
  27      0.009436548538
  28     -0.000000037730
  29      0.000000197200
  30     -0.088589783043
  31     -0.002222550532
  32     -0.000000010462
  33      0.000000010893
  34     -0.000054359416
  35     -0.000004271998
  36     -0.000127497057
  37      0.001352269253
  38     -0.047886558427
  39      0.000000040239
  40     -0.000000453417
  41     -0.007600367780
  42     -0.000000081814
  43      0.000000407230
  44      0.000757930667
  45     -0.000222836039
  46      0.000000029434
  47      0.000000007310
  48      0.000012097663
  49      0.000000632146
 Ene=   0.85207053742949E+00
 Spin= Alpha
 Occup=    0.000000
   1      0.000000008365
   2     -0.000000013985
   3     -0.000000223218
   4     -0.000001021762
   5      0.016565384073
   6      0.000002054010
   7      0.000000013344
   8     -0.145777637849
   9     -0.000015923502
  10     -0.000000178835
  11      0.483030937961
  12      0.000051520843
  13      0.000000633419
  14     -0.767326824228
  15     -0.000081110885
  16      0.000000069273
  17      0.000000039564
  18      0.436503421309
  19      0.000045789213
  20     -0.000000018554
  21     -0.000000018760
  22      0.000000102286
  23     -0.000000893708
  24     -0.000001393934
  25     -0.232067615559
  26     -0.000024397371
  27      0.000000276132
  28      1.165037269358
  29      0.000122359181
  30      0.000002822182
  31     -0.000000006852
  32     -0.146595173127
  33     -0.000015308613
  34     -0.000000000744
  35     -0.000000009979
  36      0.000000000594
  37     -0.000000369330
  38      0.000003694729
  39      0.738785328819
  40      0.000077371282
  41      0.000000313364
  42     -1.366077718852
  43     -0.000143210207
  44      0.000001127439
  45     -0.000000037662
  46      0.051519726819
  47      0.000005386794
  48     -0.000000000545
  49     -0.000000047912
 Ene=   0.86664172269674E+00
 Spin= Alpha
 Occup=    0.000000
   1      0.000000000869
   2     -0.000000009735
   3      0.000000003653
   4      0.000000706353
   5      0.002168904629
   6      0.000069722384
   7     -0.000000004717
   8     -0.007966113933
   9     -0.000639139467
  10     -0.000000003830
  11      0.020116420564
  12      0.002112762440
  13      0.000000021830
  14     -0.028342307227
  15     -0.003244472300
  16     -0.000000414691
  17     -0.000000005328
  18      0.014319995088
  19      0.001848896013
  20     -0.000000003399
  21     -0.000000001300
  22     -0.000000034741
  23      0.000000216426
  24     -0.000000324954
  25     -0.007769515736
  26     -0.000917098276
  27      0.000000071606
  28      0.038712195842
  29      0.004749516901
  30     -0.000000956631
  31     -0.000000019222
  32     -0.004729789284
  33     -0.000616785938
  34      0.000000003896
  35      0.000000009704
  36      0.000000001085
  37      0.000000020898
  38     -0.000000626567
  39      0.024076791073
  40      0.002979322423
  41     -0.000000082457
  42     -0.044416070660
  43     -0.005528523276
  44     -0.000000038869
  45      0.000000011851
  46      0.001736976392
  47      0.000214323066
  48      0.000000023813
  49      0.000000047576
 Ene=   0.87168313827009E+00
 Spin= Alpha
 Occup=    0.000000
   1      0.000437535118
   2     -0.003359151083
   3      0.016693601198
   4     -0.021934963992
   5     -0.000000001259
   6      0.000000013944
   7      0.000818519676
   8     -0.000000024589
   9      0.000000000939
  10      0.004658729616
  11      0.000000107788
  12     -0.000000072185
  13     -0.021795694019
  14     -0.000000206040
  15      0.000000173209
  16      0.027436272708
  17     -0.008613576650
  18      0.000000174215
  19     -0.000000118015
  20     -0.000398214028
  21      0.000011693314
  22     -0.002993563604
  23      0.013699705041
  24      0.012566974558
  25      0.000000052502
  26      0.000000061451
  27     -0.007911575105
  28      0.000000301928
  29     -0.000000340767
  30     -0.001708740793
  31     -0.001732321388
  32     -0.000000047765
  33      0.000000051094
  34     -0.000029029797
  35      0.000002345572
  36      0.001700036036
  37     -0.006666544621
  38     -0.006473505518
  39      0.000000238422
  40     -0.000000278344
  41     -0.017725996245
  42     -0.000000456092
  43      0.000000464119
  44      0.008618553675
  45      0.001240268141
  46     -0.000000002342
  47     -0.000000007895
  48     -0.000053538032
  49     -0.000000541014
 Ene=   0.87682170438924E+00
 Spin= Alpha
 Occup=    0.000000
   1     -0.000273289432
   2      0.002099012990
   3     -0.010509760829
   4      0.014594542637
   5     -0.000000002181
   6      0.000000012370
   7     -0.000330959895
   8      0.000000005092
   9     -0.000000083533
  10     -0.003235518200
  11     -0.000000007773
  12      0.000000263026
  13      0.013997280794
  14     -0.000000006293
  15     -0.000000405062
  16     -0.017895632336
  17      0.005407042302
  18     -0.000000030363
  19      0.000000219485
  20      0.000307691393
  21      0.000023796488
  22      0.001823866809
  23     -0.008302998068
  24     -0.008472841726
  25     -0.000000080567
  26     -0.000000110580
  27      0.005010896112
  28      0.000000082389
  29      0.000000597681
  30      0.000145431761
  31      0.001046207792
  32     -0.000000012426
  33     -0.000000078820
  34      0.000031588079
  35      0.000005093224
  36     -0.001059057425
  37      0.004172677792
  38      0.003554085670
  39      0.000000086606
  40      0.000000412115
  41      0.011048449478
  42     -0.000000100377
  43     -0.000000729788
  44     -0.005461804407
  45     -0.000775329127
  46      0.000000018456
  47      0.000000020936
  48      0.000030782162
  49     -0.000000934030
 Ene=   0.90163412545656E+00
 Spin= Alpha
 Occup=    0.000000
   1     -0.016232118977
   2      0.125027103828
   3     -0.649729070635
   4      1.114545623544
   5     -0.000000094183
   6     -0.000000078139
   7      0.030615997449
   8      0.000000138782
   9      0.000000061456
  10     -0.280675889299
  11     -0.000000197697
  12      0.000000039526
  13      0.932505120279
  14      0.000000320504
  15     -0.000000192055
  16     -1.271117337723
  17      0.340077337550
  18     -0.000000327673
  19      0.000000064299
  20      0.014073030427
  21      0.000001822013
  22      0.098197630612
  23     -0.431800553850
  24     -0.652959791600
  25      0.000000001308
  26     -0.000000036527
  27      0.307712648646
  28     -0.000000602699
  29      0.000000229327
  30     -0.248442140412
  31      0.055669933425
  32      0.000000109242
  33     -0.000000026082
  34      0.001202380672
  35      0.000000211447
  36     -0.061814680221
  37      0.250083432569
  38      0.060260725798
  39     -0.000000492435
  40      0.000000081198
  41      0.656696193807
  42      0.000000878404
  43     -0.000000242737
  44     -0.361437587557
  45     -0.046583983807
  46     -0.000000013598
  47      0.000000006469
  48      0.001945849357
  49      0.000000480025
 Ene=   0.90928784153279E+00
 Spin= Alpha
 Occup=    0.000000
   1     -0.000000000213
   2      0.000000009440
   3      0.000000020982
   4     -0.000001354585
   5     -0.002966767656
   6     -0.000332277512
   7      0.000000055079
   8      0.006614588513
   9      0.000820979863
  10     -0.000000059949
  11     -0.011156856051
  12     -0.001541962255
  13     -0.000000037950
  14      0.012153745593
  15      0.001752652007
  16      0.000000835771
  17     -0.000000093637
  18     -0.004474207030
  19     -0.000707218303
  20     -0.000000000048
  21      0.000000027366
  22      0.000000031195
  23     -0.000000281683
  24      0.000000193235
  25      0.002123649791
  26      0.000322329792
  27     -0.000000093844
  28     -0.011708104903
  29     -0.001788968776
  30      0.000001967238
  31     -0.000000003389
  32      0.001236502165
  33      0.000202643106
  34      0.000000003254
  35     -0.000000009144
  36      0.000000018121
  37     -0.000000176623
  38      0.000001651890
  39     -0.006424531865
  40     -0.000993113803
  41      0.000000057396
  42      0.012236192468
  43      0.001895139831
  44      0.000000310146
  45     -0.000000025904
  46     -0.000604800464
  47     -0.000090056453
  48     -0.000000008578
  49     -0.000000040448
 Ene=   0.10478875470258E+01
 Spin= Alpha
 Occup=    0.000000
   1      0.011695353388
   2     -0.089879446437
   3      0.258240963218
   4      4.082816515898
   5      0.000000131511
   6      0.000000042254
   7      0.000104305705
   8     -0.000000168950
   9     -0.000000033366
  10      0.011431514952
  11      0.000000139342
  12      0.000000001958
  13     -0.056072627015
  14     -0.000000148614
  15      0.000000068543
  16     -2.461268320883
  17      0.502254370177
  18      0.000000120790
  19     -0.000000047445
  20      0.008895491074
  21      0.000000999818
  22     -0.100112316259
  23      1.529577294152
  24      2.627661995744
  25     -0.000000039925
  26     -0.000000035704
  27     -0.332610821493
  28      0.000000245568
  29      0.000000006979
  30     -7.963325664534
  31      0.155951357128
  32     -0.000000064259
  33     -0.000000042868
  34     -0.000660716506
  35      0.000000023875
  36     -0.172365993494
  37      1.652541761311
  38     -9.920618983509
  39      0.000000234629
  40      0.000000219786
  41     -0.081059561649
  42     -0.000000349591
  43     -0.000000105191
  44     -3.253799891509
  45      0.050721997653
  46      0.000000019376
  47      0.000000008307
  48     -0.002092640496
  49      0.000000159435
 Ene=   0.10553515378039E+01
 Spin= Alpha
 Occup=    0.000000
   1      0.000000001540
   2     -0.000000012180
   3      0.000000070185
   4     -0.000000136666
   5      0.000125210134
   6     -0.000002803799
   7     -0.000000062824
   8     -0.000208644940
   9      0.000004786663
  10      0.000000118196
  11      0.000214858944
  12     -0.000005191732
  13     -0.000000164160
  14     -0.000153958399
  15      0.000003829315
  16      0.000000178727
  17     -0.000000021047
  18     -0.000010255244
  19      0.000000133208
  20     -0.000000001608
  21     -0.000000000780
  22     -0.000000002873
  23      0.000000024724
  24      0.000000173524
  25      0.000067749683
  26     -0.000001478973
  27     -0.000000044161
  28      0.000025153381
  29     -0.000000865921
  30      0.000000000789
  31      0.000000011577
  32     -0.000007542486
  33      0.000000188076
  34     -0.000000000062
  35      0.000000003240
  36      0.000000005336
  37     -0.000000016140
  38     -0.000000087936
  39      0.000141850827
  40     -0.000003402459
  41     -0.000000053639
  42     -0.000158938395
  43      0.000003918453
  44     -0.000000007193
  45      0.000000006225
  46      0.000044206875
  47     -0.000000987075
  48     -0.000000001146
  49      0.000000008351
 Ene=   0.12404975370862E+01
 Spin= Alpha
 Occup=    0.000000
   1      0.000492841562
   2     -0.014215014993
   3      0.626930126490
   4     -2.249484038020
   5      0.000000043777
   6     -0.000000054098
   7     -0.036221460594
   8     -0.000000055773
   9      0.000000082352
  10      0.034661186750
  11      0.000000027873
  12     -0.000000073873
  13     -0.159838446804
  14     -0.000000019229
  15      0.000000064768
  16      1.652062219978
  17     -0.963200265157
  18      0.000000000920