[Molden Format]
[Title]
generated by TRESC, imaginary part1 of MOs of job SCN
 
[Atoms] AU
 S   1  16    0.0000000000    0.0000000000    1.9184736755
 C   2   6    0.0000000000    0.0000000000   -1.1567057569
 N   3   7    0.0000000000    0.0000000000   -3.3890492760
[GTO]
  1 0
 s  5 1.0
    10081.3659290000        0.0067330718
     1468.8676987000        0.0423201277
      327.2465016600        0.1866835343
       90.5285201140        0.4849802687
       27.5058308280        0.4517376429
 s  3 1.0
       46.3853988360       -0.0950589434
        5.0228188449        0.5843701906
        2.0306206045        0.5413909427
 s  1 1.0
        0.3606627882        1.0000000000
 s  1 1.0
        0.1371410729        1.0000000000
 p  5 1.0
      604.8788900300        0.0002353489
      140.0897861900        0.0017386166
       44.4994657800        0.0077865988
       16.4748871580        0.0220140918
        6.5229645048        0.0378945448
 p  5 1.0
      270.9504306400        0.0092081513
       62.5377853170        0.0653131413
       19.3546142200        0.2445470601
        6.7163477485        0.4820783852
        2.4098646724        0.3917477785
 p  1 1.0
        0.6191509478        1.0000000000
 p  1 1.0
        0.1701457548        1.0000000000
 d  1 1.0
        0.5500000000        1.0000000000
 
  2 0
 s  5 1.0
     1231.7975026000        0.0058423196
      185.5974766200        0.0415113222
       42.0875016200        0.1832849990
       11.6300369400        0.4683526005
        3.5840894779        0.4430601820
 s  1 1.0
        0.4029351893        1.0000000000
 s  1 1.0
        0.1309419451        1.0000000000
 p  3 1.0
        9.4821246358        0.0381720490
        2.0121097169        0.2099973699
        0.5481253660        0.5104097902
 p  1 1.0
        0.1527756940        1.0000000000
 d  1 1.0
        0.8000000000        1.0000000000
 
  3 0
 s  5 1.0
     1706.0150550000        0.0058639453
      255.9938356800        0.0413450288
       58.1565771970        0.1820914202
       16.1430707430        0.4678591214
        4.9963209539        0.4434151324
 s  1 1.0
        0.5882550288        1.0000000000
 s  1 1.0
        0.1877013255        1.0000000000
 p  3 1.0
       13.5897862110        0.0400190920
        2.9274822154        0.2175789499
        0.7994670210        0.5117738303
 p  1 1.0
        0.2195247995        1.0000000000
 d  1 1.0
        1.0000000000        1.0000000000
 
[5D]
[7F]
[9G]
[MO]
 Ene=  -0.89184064177267E+02
 Spin= Alpha
 Occup=    1.000000
   1      0.489890300220
   2      0.011072775198
   3     -0.004861418959
   4      0.001555095091
   5      0.000000001544
   6      0.000000004500
   7      0.000306513847
   8      0.000000000868
   9      0.000000002314
  10     -0.000426276420
  11     -0.000000000300
  12      0.000000000667
  13      0.000427294936
  14      0.000000000916
  15      0.000000002606
  16      0.000312991028
  17     -0.000223090683
  18      0.000000001074
  19     -0.000000000171
  20     -0.000000183255
  21     -0.000000035928
  22     -0.000062793082
  23     -0.000116074606
  24     -0.001812396530
  25     -0.000000000172
  26      0.000000000040
  27      0.000184072972
  28     -0.000000000088
  29     -0.000000001125
  30      0.002538026744
  31      0.000500636987
  32      0.000000000089
  33     -0.000000000089
  34      0.000000007187
  35      0.000000004408
  36      0.000057979989
  37     -0.000677209139
  38      0.003419101811
  39      0.000000000387
  40      0.000000000217
  41     -0.000222276620
  42     -0.000000000196
  43      0.000000000772
  44      0.001125251618
  45     -0.000053442597
  46     -0.000000000062
  47      0.000000000020
  48      0.000000007462
  49      0.000000010188
 Ene=  -0.89179297081033E+02
 Spin= Alpha
 Occup=    0.000000
   1     -0.000000000498
   2     -0.000000000049
   3      0.000000000148
   4     -0.000000000099
   5      0.000000259208
   6     -0.000000451767
   7     -0.000000006918
   8     -0.000000214084
   9      0.000000373400
  10      0.000000004950
  11      0.000000038391
  12     -0.000000066575
  13     -0.000000000963
  14     -0.000000012871
  15      0.000000022317
  16      0.000000000358
  17      0.000000000042
  18     -0.000000005827
  19      0.000000009447
  20     -0.000000000003
  21     -0.000000000004
  22      0.000000000018
  23     -0.000000000009
  24      0.000000000335
  25      0.000000001520
  26     -0.000000002736
  27     -0.000000000103
  28      0.000000003052
  29     -0.000000005278
  30     -0.000000000189
  31     -0.000000000120
  32     -0.000000009153
  33      0.000000016162
  34      0.000000000003
  35      0.000000000001
  36      0.000000000000
  37      0.000000000079
  38     -0.000000000364
  39     -0.000000001931
  40      0.000000003435
  41     -0.000000000091
  42     -0.000000002049
  43      0.000000003530
  44     -0.000000000079
  45      0.000000000008
  46     -0.000000000251
  47      0.000000000338
  48      0.000000000006
  49     -0.000000000000
 Ene=  -0.14381403439178E+02
 Spin= Alpha
 Occup=    1.000000
   1     -0.000050041089
   2      0.000431308764
   3     -0.002029022622
   4     -0.011196333671
   5      0.000000012340
   6      0.000000001785
   7      0.000762315111
   8     -0.000000006926
   9      0.000000001247
  10     -0.000958447177
  11      0.000000002400
  12      0.000000001306
  13      0.001112605692
  14     -0.000000001872
  15      0.000000000584
  16      0.006391529110
  17     -0.000947946059
  18      0.000000001397
  19     -0.000000000265
  20     -0.000000032223
  21      0.000000014958
  22     -0.000310831027
  23     -0.001867271554
  24     -0.019007935212
  25     -0.000000000061
  26     -0.000000000055
  27     -0.003255717768
  28      0.000000000232
  29     -0.000000002716
  30      0.029596836640
  31      0.002706854730
  32      0.000000000143
  33      0.000000000610
  34      0.000005702029
  35     -0.000000007000
  36     -0.936566373427
  37     -0.043086744227
  38      0.052491338037
  39      0.000000002712
  40      0.000000002137
  41     -0.004779685572
  42      0.000000000187
  43      0.000000005754
  44      0.014378206962
  45     -0.001151039864
  46     -0.000000001184
  47      0.000000000378
  48     -0.000091267361
  49     -0.000000143801
 Ene=  -0.14373607809869E+02
 Spin= Alpha
 Occup=    0.000000
   1      0.000000000025
   2     -0.000000000134
   3      0.000000000337
   4      0.000000000640
   5      0.000000337718
   6      0.000000049024
   7     -0.000000011282
   8     -0.000000164620
   9     -0.000000023776
  10      0.000000006476
  11      0.000000042387
  12      0.000000006099
  13     -0.000000001786
  14     -0.000000061095
  15     -0.000000008611
  16      0.000000000117
  17      0.000000000415
  18      0.000000027849
  19      0.000000004192
  20     -0.000000000050
  21     -0.000000000012
  22      0.000000000206
  23     -0.000000000565
  24      0.000000001024
  25     -0.000000113758
  26     -0.000000017123
  27      0.000000000616
  28      0.000000142290
  29      0.000000020099
  30     -0.000000001652
  31     -0.000000001194
  32     -0.000000119428
  33     -0.000000016294
  34     -0.000000000000
  35      0.000000000018
  36     -0.000000000284
  37      0.000000001089
  38     -0.000000002098
  39      0.000000439826
  40      0.000000064140
  41      0.000000002586
  42     -0.000000231956
  43     -0.000000032957
  44     -0.000000001400
  45      0.000000000509
  46      0.000000130619
  47      0.000000024700
  48      0.000000000042
  49     -0.000000000317
 Ene=  -0.10278678244270E+02
 Spin= Alpha
 Occup=    0.000000
   1      0.000000000003
   2      0.000000000011
   3     -0.000000000159
   4     -0.000000000088
   5      0.000001019626
   6     -0.000000013685
   7      0.000000007933
   8     -0.000000119630
   9      0.000000001606
  10     -0.000000001471
  11      0.000000100685
  12     -0.000000001356
  13      0.000000001087
  14     -0.000000034052
  15      0.000000000461
  16     -0.000000000279
  17     -0.000000000114
  18      0.000000033989
  19     -0.000000000460
  20     -0.000000000001
  21      0.000000000002
  22      0.000000000096
  23      0.000000000138
  24     -0.000000000430
  25     -0.000000037830
  26      0.000000000575
  27     -0.000000000151
  28      0.000000040285
  29     -0.000000000556
  30      0.000000000499
  31      0.000000000393
  32     -0.000000346808
  33      0.000000004416
  34      0.000000000006
  35      0.000000000004
  36      0.000000000029
  37     -0.000000000404
  38      0.000000000734
  39     -0.000000089913
  40      0.000000001226
  41     -0.000000000572
  42      0.000000016297
  43     -0.000000000227
  44      0.000000000401
  45     -0.000000000122
  46      0.000000218712
  47     -0.000000002936
  48     -0.000000000005
  49     -0.000000000018
 Ene=  -0.10276256546464E+02
 Spin= Alpha
 Occup=    1.000000
   1     -0.000015296198
   2      0.000125578621
   3     -0.000299461829
   4      0.004076616369
   5      0.000000000412
   6      0.000000008045
   7      0.000407352192
   8      0.000000000985
   9     -0.000000001160
  10     -0.000515987255
  11      0.000000000221
  12      0.000000001076
  13      0.000484321833
  14      0.000000000146
  15     -0.000000000334
  16     -0.002039786997
  17     -0.000393078299
  18     -0.000000000034
  19     -0.000000000021
  20      0.000000092647
  21      0.000000032251
  22      0.172750345146
  23      0.008685797027
  24     -0.000693110957
  25     -0.000000000029
  26     -0.000000000116
  27     -0.000246526383
  28     -0.000000000380
  29     -0.000000000012
  30     -0.006864985520
  31      0.000769234956
  32      0.000000000015
  33     -0.000000000029
  34     -0.000001399634
  35      0.000000031593
  36     -0.000088615990
  37      0.000128796866
  38     -0.007404331640
  39     -0.000000000126
  40     -0.000000000382
  41     -0.000389090109
  42      0.000000000852
  43      0.000000000336
  44     -0.003070994602
  45     -0.000241339807
  46     -0.000000000270
  47      0.000000000064
  48      0.000000372325
  49     -0.000000054333
 Ene=  -0.80219432662506E+01
 Spin= Alpha
 Occup=    1.000000
   1      0.002232487382
   2     -0.007396118601
   3     -0.000381589467
   4      0.000094373625
   5      0.000000013385
   6     -0.000000017434
   7      0.000001442468
   8     -0.000000016497
   9     -0.000000030665
  10      0.000054953914
  11      0.000000001960
  12     -0.000000001796
  13      0.000018041794
  14     -0.000000001532
  15     -0.000000000663
  16      0.000017169960
  17     -0.000010167789
  18     -0.000000000321
  19      0.000000000159
  20     -0.000002958835
  21      0.000000226345
  22     -0.000000921283
  23     -0.000005748797
  24     -0.000079826878
  25     -0.000000000112
  26      0.000000000050
  27      0.000010691104
  28      0.000000000637
  29      0.000000000254
  30      0.000114086615
  31      0.000013233333
  32      0.000000000060
  33     -0.000000000071
  34      0.000000082733
  35     -0.000000024359
  36      0.000001905595
  37     -0.000023379729
  38      0.000148793836
  39      0.000000001017
  40     -0.000000001907
  41     -0.000005349041
  42     -0.000000000712
  43      0.000000000144
  44      0.000048100333
  45     -0.000000435761
  46      0.000000000009
  47     -0.000000000054
  48     -0.000000006141
  49     -0.000000063074
 Ene=  -0.80175609939434E+01
 Spin= Alpha
 Occup=    0.000000
   1      0.000000000053
   2     -0.000000000137
   3     -0.000000000220
   4     -0.000000000972
   5      0.000002888960
   6      0.000040126485
   7     -0.000000011398
   8      0.000001748996
   9      0.000023928624
  10      0.000000007928
  11      0.000000317245
  12      0.000004368130
  13     -0.000000001516
  14     -0.000000113374
  15     -0.000001572793
  16      0.000000001777
  17      0.000000000155
  18     -0.000000001862
  19      0.000000025211
  20      0.000000000010
  21      0.000000000253
  22     -0.000000000003
  23      0.000000000191
  24     -0.000000001095
  25     -0.000000000004
  26      0.000000000135
  27     -0.000000000497
  28      0.000000028500
  29      0.000000405364
  30      0.000000002066
  31      0.000000000232
  32     -0.000000014386
  33     -0.000000192661
  34     -0.000000000138
  35     -0.000000000022
  36     -0.000000000039
  37     -0.000000000476
  38      0.000000002348
  39     -0.000000002513
  40     -0.000000032431
  41     -0.000000001773
  42     -0.000000012933
  43     -0.000000183688
  44      0.000000001342
  45     -0.000000000185
  46     -0.000000003427
  47     -0.000000047696
  48      0.000000000049
  49     -0.000000000001
 Ene=  -0.59729785990694E+01
 Spin= Alpha
 Occup=    0.694799
   1      0.000000122431
   2     -0.000000394802
   3     -0.000000194215
   4     -0.000000046048
   5      0.011170349472
   6      0.005031374705
   7     -0.000000013479
   8      0.578824910451
   9      0.203094493519
  10     -0.000000568568
  11      0.032852567515
  12      0.011412556929
  13     -0.000000129910
  14     -0.006202276132
  15     -0.002172494191
  16      0.000000156491
  17      0.000000023573
  18     -0.000174751081
  19     -0.000062285722
  20     -0.000000000099
  21      0.000000032151
  22      0.000000028811
  23     -0.000000079979
  24     -0.000000119025
  25     -0.000202600785
  26     -0.000069769426
  27      0.000000011297
  28      0.001452388245
  29      0.000510088313
  30      0.000000299078
  31     -0.000000029730
  32     -0.000436400154
  33     -0.000148958817
  34     -0.000000013518
  35     -0.000000001862
  36      0.000000006675
  37     -0.000000005865
  38      0.000000319517
  39      0.000014678779
  40      0.000005838718
  41      0.000000026548
  42     -0.000635861624
  43     -0.000223093815
  44      0.000000071416
  45      0.000000056161
  46     -0.000187729208
  47     -0.000064811792
  48      0.000000012829
  49     -0.000000008202
 Ene=  -0.59683838973072E+01
 Spin= Alpha
 Occup=    0.416300
   1      0.000405347727
   2     -0.001468655954
   3      0.000522664322
   4     -0.000124926627
   5     -0.000000003952
   6      0.000000014367
   7     -0.002819357549
   8     -0.000000588306
   9      0.000000653652
  10     -0.143056355771
  11     -0.000000036062
  12      0.000000035999
  13     -0.008469150770
  14      0.000000006781
  15     -0.000000007415
  16      0.001476772531
  17      0.000329867709
  18      0.000000000402
  19     -0.000000000212
  20     -0.000001424323
  21     -0.000000004194
  22      0.000039030419
  23     -0.000095088213
  24      0.001326680371
  25      0.000000023732
  26     -0.000000000003
  27     -0.000228170779
  28     -0.000000006167
  29      0.000000003371
  30     -0.001025628235
  31     -0.000483029155
  32     -0.000000000674
  33     -0.000000001064
  34      0.000000613135
  35     -0.000000006920
  36     -0.000035499275
  37      0.000395430215
  38     -0.001638227331
  39     -0.000000001187
  40      0.000000000476
  41      0.000166383800
  42     -0.000000004932
  43     -0.000000001953
  44     -0.000509433442
  45      0.000082793895
  46     -0.000000001769
  47     -0.000000004171
  48     -0.000000073482
  49     -0.000000000569
 Ene=  -0.59251177479349E+01
 Spin= Alpha
 Occup=    0.534436
   1     -0.000000045912
   2      0.000000142525
   3      0.000000086176
   4     -0.000000020194
   5      0.000033306139
   6     -0.001371449730
   7     -0.000000006218
   8      0.012845401078
   9     -0.176238443786
  10     -0.000002465317
  11      0.000720441301
  12     -0.009796642200
  13     -0.000000145120
  14     -0.000131988727
  15      0.001817274913
  16      0.000000008979
  17      0.000000004980
  18     -0.000004073637
  19      0.000056041113
  20      0.000000000300
  21     -0.000000004026
  22      0.000000000737
  23      0.000000001497
  24      0.000000061899
  25     -0.000004291680
  26      0.000058602564
  27     -0.000000007586
  28      0.000030672126
  29     -0.000422682952
  30     -0.000000067464
  31     -0.000000009892
  32     -0.000009349474
  33      0.000125366076
  34      0.000000001813
  35      0.000000000319
  36     -0.000000001568
  37      0.000000014222
  38     -0.000000093923
  39      0.000000269264
  40     -0.000004747597
  41      0.000000000436
  42     -0.000013411571
  43      0.000184303660
  44     -0.000000029541
  45      0.000000000763
  46     -0.000003993349
  47      0.000054031278
  48      0.000000000156
  49     -0.000000000176
 Ene=  -0.59209102495994E+01
 Spin= Alpha
 Occup=    0.580139
   1      0.000631763670
   2     -0.002289961537
   3      0.000807552615
   4     -0.000169462401
   5      0.000000003873
   6      0.000000000216
   7     -0.000711434863
   8      0.000001113921
   9      0.000000652411
  10     -0.231339179583
  11      0.000000064328
  12      0.000000035107
  13     -0.013503723380
  14     -0.000000012638
  15     -0.000000006449
  16      0.002272059616
  17      0.000520911645
  18     -0.000000000636
  19     -0.000000000416
  20     -0.000002324894
  21     -0.000000016475
  22      0.000052583412
  23     -0.000138460330
  24      0.002038923790
  25     -0.000000008835
  26      0.000000000068
  27     -0.000353526762
  28      0.000000005339
  29      0.000000001106
  30     -0.001605953604
  31     -0.000730591528
  32     -0.000000000563
  33      0.000000000067
  34      0.000000995075
  35     -0.000000000883
  36     -0.000053627479
  37      0.000601549411
  38     -0.002540604041
  39     -0.000000000729
  40      0.000000005322
  41      0.000249397411
  42      0.000000001074
  43     -0.000000001745
  44     -0.000788831695
  45      0.000123687116
  46      0.000000000334
  47      0.000000001221
  48     -0.000000117745
  49     -0.000000005209
 Ene=  -0.59172381230365E+01
 Spin= Alpha
 Occup=    0.770765
   1     -0.000000183565
   2      0.000000586194
   3      0.000000227007
   4     -0.000000089103
   5      0.000048737243
   6     -0.002488175565
   7      0.000000002899
   8     -0.195874079321
   9     -0.478651490159
  10      0.000002490572
  11     -0.010976845323
  12     -0.026518716040
  13      0.000000111487
  14      0.002006959518
  15      0.004876191626
  16     -0.000000013318
  17      0.000000006277
  18      0.000062030583
  19      0.000155187446
  20      0.000000001055
  21      0.000000003962
  22      0.000000005745
  23     -0.000000007331
  24      0.000000042177
  25      0.000065632521
  26      0.000155590051
  27     -0.000000001552
  28     -0.000465187352
  29     -0.001134572960
  30     -0.000000046801
  31     -0.000000013723
  32      0.000142355325
  33      0.000336525276
  34     -0.000000002155
  35      0.000000000124
  36     -0.000000004164
  37      0.000000022354
  38     -0.000000072226
  39     -0.000004342232
  40     -0.000011420079
  41      0.000000007641
  42      0.000203149316
  43      0.000495373520
  44     -0.000000021594
  45      0.000000009622
  46      0.000060617826
  47      0.000145198860
  48      0.000000001364
  49     -0.000000003410
 Ene=  -0.59111541420389E+01
 Spin= Alpha
 Occup=    0.003561
   1     -0.000064947096
   2      0.000235434075
   3     -0.000082858940
   4      0.000016868475
   5     -0.000000000783
   6      0.000000001413
   7     -0.000007078572
   8     -0.000000034190
   9      0.000000116344
  10      0.023961769272
  11     -0.000000002255
  12      0.000000006165
  13      0.001394747142
  14      0.000000000638
  15     -0.000000001094
  16     -0.000232914614
  17     -0.000053694926
  18      0.000000000114
  19     -0.000000000062
  20      0.000000180434
  21      0.000000133538
  22     -0.000005226516
  23      0.000014016229
  24     -0.000208970351
  25      0.000000002115
  26      0.000000000026
  27      0.000036291232
  28     -0.000000000897
  29      0.000000000301
  30      0.000165255205
  31      0.000074616733
  32      0.000000000062
  33     -0.000000000124
  34     -0.000000109025
  35      0.000000012619
  36      0.000005474878
  37     -0.000061516145
  38      0.000260896657
  39     -0.000000000489
  40     -0.000000000412
  41     -0.000025422827
  42     -0.000000000067
  43     -0.000000000072
  44      0.000080980160
  45     -0.000012597554
  46      0.000000000158
  47     -0.000000000172
  48      0.000000010224
  49      0.000000004386
 Ene=  -0.93737920531454E+00
 Spin= Alpha
 Occup=    1.000000
   1      0.014890043569
   2     -0.091035569781
   3      0.126036817455
   4      0.067970812909
   5      0.000000020719
   6     -0.000000052529
   7      0.001744714099
   8     -0.000000015065
   9      0.000000101457
  10      0.021307285171
  11      0.000000022893
  12      0.000000012738
  13     -0.036094699665
  14     -0.000000019701
  15     -0.000000078514
  16     -0.036488731729
  17      0.013438913755
  18     -0.000000027888
  19      0.000000003509
  20      0.002543508176
  21      0.000000600129
  22     -0.181934772955
  23      0.358770521001
  24      0.068531585596
  25     -0.000000007294
  26     -0.000000034123
  27     -0.157548959930
  28     -0.000000000409
  29      0.000000026510
  30     -0.052164114649
  31      0.025003241810
  32      0.000000000454
  33     -0.000000000209
  34      0.000729530094
  35      0.000000173218
  36     -0.208854497296
  37      0.419346367102
  38      0.107868438084
  39     -0.000000067422
  40     -0.000000157341
  41      0.181105864960
  42      0.000000028806
  43     -0.000000076551
  44      0.009857785306
  45      0.015026381520
  46      0.000000005021
  47     -0.000000001839
  48      0.003132213556
  49      0.000000957533
 Ene=  -0.92187262244229E+00
 Spin= Alpha
 Occup=    0.000000
   1      0.000000003257
   2     -0.000000020712
   3      0.000000029840
   4      0.000000016591
   5      0.000241353277
   6     -0.000061332675
   7      0.000000032658
   8     -0.000240588189
   9      0.000062322055
  10     -0.000000023699
  11     -0.000160183536
  12      0.000038461609
  13     -0.000000034444
  14     -0.000058058292
  15      0.000013485998
  16     -0.000000015927
  17      0.000000001186
  18      0.000007272982
  19     -0.000001791122
  20      0.000000000528
  21     -0.000000001332
  22     -0.000000005841
  23      0.000000014260
  24      0.000000012420
  25     -0.000057353565
  26      0.000014660028
  27      0.000000016763
  28      0.000024326110
  29     -0.000006045961
  30     -0.000000011700
  31      0.000000000825
  32      0.000000813755
  33     -0.000000249894
  34      0.000000000400
  35      0.000000000311
  36      0.000000002559
  37     -0.000000003172
  38     -0.000000020823
  39      0.000129920086
  40     -0.000032111114
  41      0.000000001560
  42     -0.000013236359
  43      0.000003560256
  44     -0.000000017125
  45      0.000000001607
  46      0.000005538025
  47     -0.000001351661
  48      0.000000000809
  49     -0.000000002732
 Ene=  -0.81664695585292E+00
 Spin= Alpha
 Occup=    0.999999
   1     -0.069267031874
   2      0.427428889756
   3     -0.610781500985
   4     -0.237986337181
   5     -0.000000271833
   6     -0.000000114696
   7     -0.006130073627
   8      0.000000212266
   9     -0.000000109032
  10     -0.059134709543
  11     -0.000000035422
  12      0.000000073985
  13      0.107024049590
  14      0.000000228334
  15      0.000000474231
  16      0.060694903779
  17     -0.028027467129
  18      0.000000076359
  19     -0.000000020355
  20     -0.013012245619
  21     -0.000003306225
  22      0.065465593129
  23     -0.140902462275
  24     -0.007555163948
  25      0.000000048791
  26      0.000000116844
  27     -0.265076224404
  28     -0.000000045911
  29     -0.000000094268
  30     -0.043318894778
  31     -0.012447287881
  32     -0.000000004587
  33     -0.000000002091
  34     -0.000118545042
  35     -0.000000025061
  36     -0.090186584476
  37      0.188350160400
  38      0.052218274667
  39      0.000000160146
  40      0.000000420006
  41      0.065457263701
  42      0.000000029405
  43      0.000000173903
  44     -0.001212617518
  45      0.005289149253
  46      0.000000007912
  47      0.000000015151
  48      0.001351191699
  49      0.000000307341
 Ene=  -0.79374369210272E+00
 Spin= Alpha
 Occup=    0.000001
   1     -0.000000001476
   2      0.000000011192
   3     -0.000000017750
   4      0.000000014071
   5     -0.000646278574
   6     -0.000109722367
   7      0.000000008101
   8      0.000596148713
   9      0.000104252435
  10     -0.000000017760
  11      0.000509069383
  12      0.000080656643
  13      0.000000009036
  14      0.000189731680
  15      0.000028255680
  16     -0.000000017206
  17     -0.000000002037
  18     -0.000014573194
  19     -0.000002267314
  20     -0.000000000172
  21     -0.000000002430
  22      0.000000008484
  23     -0.000000012843
  24     -0.000000003984
  25     -0.000062326023
  26     -0.000011251108
  27      0.000000015119
  28      0.000025973072
  29      0.000004578749
  30     -0.000000033358
  31     -0.000000000458
  32      0.000011039123
  33      0.000001807294
  34      0.000000000766
  35      0.000000000078
  36      0.000000019880
  37     -0.000000042438
  38     -0.000000042684
  39      0.000051432664
  40      0.000008334220
  41     -0.000000003797
  42     -0.000007670260
  43     -0.000001542326
  44      0.000000002331
  45     -0.000000007134
  46      0.000004924302
  47      0.000000791160
  48     -0.000000001475
  49     -0.000000002291
 Ene=  -0.50126656356610E+00
 Spin= Alpha
 Occup=    0.999962
   1      0.031877820079
   2     -0.202644482910
   3      0.287782485556
   4      0.278790016483
   5      0.000000020092
   6      0.000000250739
   7     -0.017401915666
   8     -0.000000029766
   9      0.000000062874
  10     -0.117596744811
  11      0.000000153079
  12     -0.000000432792
  13      0.231298957936
  14     -0.000000053636
  15     -0.000000686251
  16      0.187259841084
  17     -0.041461601110
  18     -0.000000045521
  19      0.000000069916
  20      0.009411264925
  21      0.000003443112
  22      0.108134869863
  23     -0.242737306875
  24     -0.097123931458
  25      0.000000044643
  26     -0.000000546756
  27     -0.165840135629
  28      0.000000034714
  29     -0.000000149024
  30     -0.101483635050
  31     -0.008142624741
  32      0.000000010052
  33      0.000000012227
  34     -0.000181794133
  35     -0.000000001075
  36     -0.059693977519
  37      0.134903515650
  38      0.040781559913
  39     -0.000000144763
  40     -0.000000796344
  41     -0.043023829237
  42     -0.000000097015
  43     -0.000000392350
  44     -0.043994170159
  45     -0.003379634428
  46     -0.000000006999
  47     -0.000000051092
  48      0.000970035549
  49      0.000000326998
 Ene=  -0.48716919721310E+00
 Spin= Alpha
 Occup=    0.000082
   1     -0.000000002641
   2      0.000000010906
   3     -0.000000008028
   4     -0.000000047588
   5      0.001904085530
   6      0.000073133966
   7     -0.000000004329
   8     -0.000384036180
   9     -0.000030584198
  10      0.000000052337
  11     -0.003823909671
  12     -0.000118651099
  13     -0.000000086217
  14     -0.003161956246
  15     -0.000090787278
  16     -0.000000017153
  17      0.000000000210
  18      0.000268855433
  19      0.000007753602
  20     -0.000000000552
  21      0.000000001636
  22      0.000000019225
  23     -0.000000048031
  24      0.000000011480
  25     -0.001474916641
  26     -0.000040140108
  27      0.000000022045
  28     -0.000680089650
  29     -0.000019211593
  30      0.000000054133
  31     -0.000000000597
  32     -0.000097105489
  33     -0.000003395308
  34     -0.000000000644
  35      0.000000000287
  36     -0.000000049571
  37      0.000000111780
  38      0.000000114996
  39     -0.000827208646
  40     -0.000018922365
  41     -0.000000095681
  42     -0.000376408299
  43     -0.000008115816
  44     -0.000000088020
  45      0.000000011017
  46     -0.000091328796
  47     -0.000002368198
  48      0.000000005919
  49     -0.000000005115
 Ene=  -0.42354060470853E+00
 Spin= Alpha
 Occup=    0.999924
   1      0.000000044295
   2     -0.000000218687
   3      0.000000010396
   4      0.000000627388
   5     -0.016984612248
   6      0.000004685039
   7     -0.000000118954
   8     -0.127370797129
   9     -0.000006726253
  10     -0.000000066706
  11      0.255827213211
  12      0.000000590128
  13      0.000000367190
  14      0.281592348449
  15      0.000003790583
  16      0.000000291524
  17     -0.000000042544
  18     -0.046095175103
  19     -0.000000991030
  20      0.000000028531
  21      0.000000008383
  22     -0.000000051463
  23      0.000000153789
  24     -0.000000050496
  25      0.382879096811
  26      0.000007646040
  27     -0.000000265620
  28      0.198922303010
  29      0.000004594671
  30     -0.000000121040
  31     -0.000000001491
  32     -0.005365268542
  33     -0.000000446465
  34      0.000000000853
  35     -0.000000004151
  36      0.000000138538
  37     -0.000000326138
  38     -0.000000338779
  39      0.350023572267
  40      0.000009533063
  41      0.000000392336
  42      0.179498911428
  43      0.000005738448
  44      0.000000189236
  45      0.000000007526
  46      0.026980453155
  47      0.000000704762
  48     -0.000000000525
  49     -0.000000004073
 Ene=  -0.40724430026011E+00
 Spin= Alpha
 Occup=    0.999900
   1      0.000000004720
   2     -0.000000027190
   3      0.000000031973
   4      0.000000040828
   5     -0.000952993089
   6     -0.000082553948
   7     -0.000000005245
   8      0.004010833036
   9     -0.000562218145
  10     -0.000000083101
  11     -0.004512049680
  12      0.001131795652
  13      0.000000162858
  14     -0.005787985886
  15      0.001239291645
  16      0.000000146741
  17     -0.000000011442
  18      0.001301062067