[Molden Format]
[Title]
generated by TRESC, imaginary part2 of MOs of job Ni0-C2H4
 
[Atoms] AU
Ni   1  28    2.0327243480    6.6651129323   -0.4637853482
 C   2   6    4.4866582262    4.9116344944    1.3008835560
 C   3   6    4.8771137450    4.8741236186   -1.3947805326
 H   4   1    5.7310700770    6.0706468704    2.4997637439
 H   5   1    3.8369470533    3.1858198160    2.2645095603
 H   6   1    4.5308414173    3.1179949920   -2.4558991994
 H   7   1    6.4130479072    6.0088908466   -2.2212746715
[GTO]
  1 0
 s  6 1.0
    71074.8032110000        0.0049184150
    10672.0209410000        0.0200173975
     2428.1389007000        0.0784715325
      685.5359514800        0.2482002663
      223.1007286300        0.4665280195
       76.8420140400        0.3374151926
 s  1 1.0
      148.7112201600        1.0000000000
 s  1 1.0
       17.4591549900        1.0000000000
 s  1 1.0
        7.1625280700        1.0000000000
 s  1 1.0
       12.5561371300        1.0000000000
 s  1 1.0
        2.0735740500        1.0000000000
 s  1 1.0
        0.8538264100        1.0000000000
 s  1 1.0
        0.1053676600        1.0000000000
 s  1 1.0
        0.0381340900        1.0000000000
 p  5 1.0
      916.7360866200        0.0107030171
      216.0613991300        0.0711467350
       68.3839148200        0.2646675976
       24.5938439500        0.5093159720
        9.1392960200        0.3283291628
 p  1 1.0
        4.7193371700        1.0000000000
 p  1 1.0
        1.8161849200        1.0000000000
 p  1 1.0
        0.6784075100        1.0000000000
 d  4 1.0
       47.0938321100        0.0346401353
       13.1464639700        0.1833736831
        4.4170548900        0.4455621030
        1.4771565100        0.5627236040
 d  1 1.0
        0.4373592200        1.0000000000
 p  1 1.0
        0.1465880000        1.0000000000
 f  1 1.0
        2.1740000000        1.0000000000
 
  2 0
 s  5 1.0
     1238.4016938000        0.0059599745
      186.2900499200        0.0422621111
       42.2511763500        0.1866575214
       11.6765579300        0.4675815865
        3.5930506500        0.4422897287
 s  1 1.0
        0.4024514700        1.0000000000
 s  1 1.0
        0.1309018300        1.0000000000
 p  3 1.0
        9.4680970600        0.0570294585
        2.0103545100        0.3130471495
        0.5477100500        0.7605135301
 p  1 1.0
        0.1526861400        1.0000000000
 d  1 1.0
        0.8000000000        1.0000000000
 
  3 0
 s  5 1.0
     1238.4016938000        0.0059599745
      186.2900499200        0.0422621111
       42.2511763500        0.1866575214
       11.6765579300        0.4675815865
        3.5930506500        0.4422897287
 s  1 1.0
        0.4024514700        1.0000000000
 s  1 1.0
        0.1309018300        1.0000000000
 p  3 1.0
        9.4680970600        0.0570294585
        2.0103545100        0.3130471495
        0.5477100500        0.7605135301
 p  1 1.0
        0.1526861400        1.0000000000
 d  1 1.0
        0.8000000000        1.0000000000
 
  4 0
 s  3 1.0
       13.0107010000        0.0391282527
        1.9622572000        0.2855840539
        0.4445379600        0.7689908602
 s  1 1.0
        0.1219496200        1.0000000000
 p  1 1.0
        0.8000000000        1.0000000000
 
  5 0
 s  3 1.0
       13.0107010000        0.0391282527
        1.9622572000        0.2855840539
        0.4445379600        0.7689908602
 s  1 1.0
        0.1219496200        1.0000000000
 p  1 1.0
        0.8000000000        1.0000000000
 
  6 0
 s  3 1.0
       13.0107010000        0.0391282527
        1.9622572000        0.2855840539
        0.4445379600        0.7689908602
 s  1 1.0
        0.1219496200        1.0000000000
 p  1 1.0
        0.8000000000        1.0000000000
 
  7 0
 s  3 1.0
       13.0107010000        0.0391282527
        1.9622572000        0.2855840539
        0.4445379600        0.7689908602
 s  1 1.0
        0.1219496200        1.0000000000
 p  1 1.0
        0.8000000000        1.0000000000
 
[5D]
[7F]
[9G]
[MO]
 Ene=   0.84705709146405E+00
 Spin= Alpha
 Occup=    0.000000
   1      0.000014194467
   2      0.000006053547
   3     -0.000020688782
   4      0.000027764566
   5     -0.000076783680
   6      0.000044025118
   7      0.000329842974
   8      0.006751597979
   9     -0.001091129077
  10     -0.000610665993
  11      0.000016806543
  12      0.004100568664
  13      0.000588054923
  14     -0.000066573115
  15     -0.003758949574
  16      0.001658515222
  17      0.000056500476
  18     -0.012093814640
  19     -0.001353448467
  20     -0.000117937044
  21      0.011885338545
  22     -0.014454762454
  23     -0.052590199930
  24      0.033146347185
  25      0.007012494630
  26     -0.005379966213
  27     -0.004132773370
  28     -0.014247841740
  29      0.010773105437
  30      0.002477511674
  31     -0.001983584344
  32      0.058680920168
  33     -0.007568180843
  34     -0.384460651830
  35      0.000444888722
  36     -0.000355564184
  37      0.000367394595
  38     -0.000553656918
  39      0.001498987866
  40      0.000072215382
  41     -0.000314102108
  42      0.054253570851
  43     -0.559666728340
  44      3.199829581463
  45      0.036529005674
  46     -0.036778034549
  47      0.146488720794
  48      0.057216866042
  49      0.071756270192
  50     -1.153483098551
  51      0.027597712426
  52     -0.015005628131
  53      0.002227427261
  54      0.015427636630
  55     -0.035828893578
  56     -0.054603252802
  57      0.564115727927
  58     -3.213779681760
  59     -0.076553443948
  60      0.040630031277
  61      0.128983260663
  62      0.273475825001
  63     -0.105893750219
  64     -1.117704438375
  65     -0.033202237809
  66     -0.005248487586
  67      0.010437858515
  68     -0.013147020808
  69      0.033521240919
  70     -0.197890119526
  71     -0.153063315141
  72     -0.008913927425
  73     -0.019557514939
  74      0.005526909624
  75     -0.189874371573
  76     -0.147406091928
  77      0.015461645909
  78      0.014353651549
  79      0.008783378761
  80      0.191288016784
  81      0.149313387448
  82     -0.017098344081
  83     -0.014576652498
  84      0.004516427496
  85      0.200241620935
  86      0.155824164822
  87      0.007001808350
  88      0.019898884562
  89      0.007195472281
 Ene=   0.11183232805619E+01
 Spin= Alpha
 Occup=    0.000000
   1     -0.000069588944
   2     -0.000032647370
   3      0.000427481664
   4      0.000639101382
   5     -0.000386825800
   6     -0.001701230220
   7      0.001077766029
   8     -0.003076387502
   9      0.000700734059
  10      0.003306824434
  11      0.004384572299
  12      0.000422642484
  13     -0.003691816790
  14     -0.005170420566
  15     -0.000464807507
  16     -0.006854099239
  17     -0.008056267636
  18     -0.000931138492
  19      0.001106972590
  20     -0.000809103210
  21      0.000297292420
  22      0.006982055930
  23      0.050083086786
  24      0.029151779933
  25      0.368240982932
  26      0.156424026375
  27     -0.009060883849
  28     -0.065693671815
  29     -0.038080242972
  30     -0.481636175142
  31     -0.205805475465
  32      0.025011114178
  33      0.039928013008
  34      0.002201688432
  35     -0.000059955733
  36     -0.000219969151
  37     -0.000210899139
  38     -0.000487849462
  39      0.000092251474
  40     -0.003002171462
  41      0.000556419537
  42      0.000499494657
  43     -0.003790312424
  44      0.009882173439
  45      0.008360944700
  46      0.009441662801
  47      0.001568601526
  48      0.039327332610
  49      0.062029723817
  50      0.002983431732
  51     -0.008365721539
  52     -0.023130814765
  53     -0.071516868921
  54      0.245057700308
  55      0.111199906108
  56      0.000043341186
  57      0.000252180276
  58     -0.005977381653
  59      0.008248029756
  60      0.010033520476
  61      0.000798073220
  62      0.040200149320
  63      0.066456119570
  64      0.004656748638
  65      0.015670780257
  66      0.087924809462
  67      0.107518273433
  68      0.225153796404
  69      0.087791098420
  70     -0.036889721115
  71     -0.042287790484
  72      0.184862073550
  73     -0.113203075042
  74     -0.092722732440
  75      0.035959323934
  76      0.039548765212
  77     -0.182536998656
  78      0.113815399002
  79      0.093439277042
  80      0.038652682944
  81      0.043128290329
  82     -0.147594963712
  83      0.109333821808
  84     -0.145054422219
  85     -0.036996106857
  86     -0.040910446325
  87      0.150457598424
  88     -0.109051239996
  89      0.144828563389
 Ene=   0.11183232805625E+01
 Spin= Alpha
 Occup=    0.000000
   1      0.000009910456
   2      0.000004676171
   3     -0.000056827747
   4     -0.000078938166
   5      0.000043805841
   6      0.000221469642
   7     -0.000103756292
   8     -0.000097601692
   9     -0.000092439326
  10     -0.000033455687
  11      0.000022580818
  12      0.000009579943
  13      0.000027425082
  14     -0.000011440258
  15     -0.000091148450
  16      0.000115590900
  17     -0.000073500761
  18     -0.000052151907
  19     -0.000117507367
  20      0.000035964338
  21      0.000440220519
  22      0.000155782357
  23     -0.000057249466
  24     -0.000445617674
  25      0.000215847882
  26     -0.000092900257
  27     -0.000428946364
  28     -0.000648689850
  29      0.002102726199
  30     -0.000353247371
  31      0.000247674568
  32      0.000008552852
  33      0.000162180350
  34     -0.001881217007
  35     -0.000006618983
  36      0.000001233449
  37     -0.000003407211
  38     -0.000007671149
  39     -0.000011438123
  40      0.000000292196
  41      0.000000137572
  42     -0.000047525226
  43     -0.000752691692
  44      0.007920881144
  45     -0.000281828187
  46      0.000455671659
  47     -0.000293752994
  48     -0.001362414267
  49     -0.001799729706
  50     -0.002057522794
  51      0.000073836695
  52     -0.000111321927
  53      0.000133507095
  54      0.000202701122
  55      0.000116927656
  56     -0.000024174192
  57      0.001057903522
  58     -0.007602572211
  59     -0.000123786035
  60     -0.000142906349
  61     -0.000174321869
  62      0.002111297267
  63      0.001670579924
  64     -0.001705645634
  65      0.000038173506
  66      0.000075552158
  67      0.000053654648
  68     -0.000114200645
  69      0.000056768003
  70     -0.000094330614
  71      0.000116122737
  72      0.000044713593
  73     -0.000154823079
  74     -0.000027940563
  75     -0.001221596788
  76     -0.001272334126
  77     -0.000443998848
  78      0.000193481718
  79     -0.000101505170
  80      0.001157327679
  81      0.001251145444
  82      0.000235658731
  83     -0.000052356119
  84     -0.000101552892
  85     -0.000014981385
  86     -0.000189509414
  87     -0.000060407076
  88      0.000182874148
  89     -0.000000754113
 Ene=   0.12219155377648E+01
 Spin= Alpha
 Occup=    0.000000
   1      0.000074836620
   2      0.000036829320
   3     -0.000595187642
   4     -0.000994411113
   5      0.000720115938
   6      0.002480285044
   7     -0.002526604535
   8      0.017206227384
   9     -0.001800251216
  10     -0.000561091560
  11      0.000294695065
  12     -0.000649792986
  13      0.000392830732
  14     -0.000068726529
  15      0.001229860832
  16      0.002300847281
  17     -0.001265397989
  18      0.002291033395
  19     -0.003058366520
  20      0.001277470271
  21     -0.005201205764
  22     -0.005562710815
  23      0.001075165070
  24     -0.003242826733
  25      0.000490666292
  26     -0.000404317132
  27      0.007233435127
  28     -0.001683401132
  29      0.007153823388
  30     -0.000270290623
  31     -0.001001202498
  32      0.009063940996
  33     -0.005593027356
  34      0.001354475790
  35      0.000008035956
  36      0.000022347080
  37     -0.000023189700
  38     -0.000042322383
  39      0.000000965805
  40      0.000009461236
  41      0.000019326290
  42     -0.000779470417
  43      0.004935223707
  44      0.000354234730
  45     -0.002329734114
  46      0.002367509699
  47     -0.001600733285
  48      0.002866932548
  49     -0.010185045596
  50     -0.002539834739
  51     -0.000643782657
  52     -0.002857361294
  53      0.002355746200
  54      0.000409972403
  55      0.000966688028
  56     -0.000731854860
  57      0.009268463521
  58     -0.032673534275
  59     -0.001941606417
  60      0.000464850661
  61      0.000048514276
  62      0.009605938408
  63      0.002710690980
  64     -0.003489005927
  65      0.000282649857
  66      0.002285991389
  67     -0.001427296279
  68     -0.001031236753
  69      0.000400279388
  70      0.001488686265
  71      0.002475628973
  72     -0.000030906621
  73      0.000795615911
  74     -0.000993990360
  75     -0.001694214454
  76     -0.001703410787
  77     -0.002858142693
  78      0.000184311713
  79     -0.001608715390
  80      0.004432884484
  81      0.005910085330
  82      0.000533023281
  83     -0.000817235441
  84      0.000195492477
  85      0.001143943476
  86      0.001396293971
  87     -0.000681176225
  88      0.002124590049
  89      0.000239968620
 Ene=   0.12219155377649E+01
 Spin= Alpha
 Occup=    0.000000
   1     -0.002930515502
   2     -0.001442028689
   3      0.023293239656
   4      0.038912658122
   5     -0.028168926671
   6     -0.097081170566
   7      0.098847456592
   8     -0.672220759937
   9      0.070210192891
  10      0.022433557272
  11     -0.015972133942
  12      0.003683438924
  13     -0.015888720925
  14      0.012829209685
  15     -0.002670695412
  16     -0.091631976394
  17      0.064661439799
  18     -0.015136209627
  19      0.121746573724
  20     -0.090439940222
  21      0.020438555383
  22      0.215056488321
  23     -0.059182033513
  24      0.011620551305
  25     -0.011054783161
  26      0.034253336151
  27     -0.286231116165
  28      0.075712006845
  29     -0.010197573284
  30     -0.003536569315
  31     -0.004441992024
  32     -0.344260863002
  33      0.233854585764
  34     -0.052672467575
  35     -0.000473318637
  36     -0.001144712631
  37      0.000774426721
  38      0.000262644634
  39     -0.000364192142
  40     -0.000157707105
  41     -0.000710901650
  42      0.029529111776
  43     -0.276075306930
  44      0.620235767791
  45      0.081127854254
  46     -0.056986518012
  47      0.043429930799
  48     -0.215188009286
  49      0.145859082949
  50     -0.065684464357
  51      0.031339634463
  52      0.102188278592
  53     -0.071863788199
  54     -0.002730594309
  55     -0.018884776024
  56      0.029493152926
  57     -0.278309456482
  58      0.640280846214
  59      0.089214145929
  60     -0.057748123214
  61     -0.016521713686
  62     -0.225241752497
  63      0.150152401714
  64      0.002004394673
  65     -0.023511569980
  66     -0.099662370358
  67      0.063981156100
  68      0.026233807899
  69     -0.041048862708
  70     -0.051420996003
  71     -0.077963761736
  72      0.006440098469
  73     -0.051644312096
  74      0.027970772019
  75     -0.051515799205
  76     -0.077665832919
  77      0.051855645213
  78      0.008683689343
  79      0.032242590322
  80     -0.052598637943
  81     -0.077714081875
  82      0.058083338430
  83      0.009729295925
  84     -0.017632942977
  85     -0.053355448223
  86     -0.080455890494
  87      0.014745645717
  88     -0.052872228227
  89     -0.022685376917
 Ene=   0.12672288652058E+01
 Spin= Alpha
 Occup=    0.000000
   1     -0.005227892771
   2     -0.002568767481
   3      0.041012244192
   4      0.067982186748
   5     -0.048864302092
   6     -0.169699028323
   7      0.156026766416
   8     -0.481681801008
   9      0.059474310126
  10      0.036739214817
  11     -0.025983976310
  12      0.005892704603
  13     -0.024816123690
  14      0.019151743676
  15     -0.004104429293
  16     -0.158342719664
  17      0.111049346945
  18     -0.025443983638
  19      0.219995036263
  20     -0.158427452297
  21      0.035818559467
  22     -0.245649333999
  23      0.043709640487
  24      0.022898907428
  25     -0.094478429661
  26      0.218154434600
  27      0.366453558605
  28     -0.070399385964
  29     -0.024642268935
  30      0.109920164495
  31     -0.259438461740
  32     -0.284222715735
  33      0.191960406388
  34     -0.042962446289
  35     -0.000193083073
  36     -0.000466406775
  37      0.000282608511
  38      0.000066523407
  39     -0.000542604761
  40     -0.000430463638
  41     -0.002378266727
  42      0.008978602153
  43     -0.052785723240
  44      0.103690745902
  45      0.086422398049
  46     -0.059680336282
  47      0.031059975489
  48     -0.193795166188
  49      0.137877491208
  50     -0.138267574461
  51     -0.040936439120
  52      0.099735534090
  53     -0.065279376136
  54      0.026132846907
  55     -0.085897629657
  56      0.009270066636
  57     -0.057409936313
  58      0.134381044374
  59      0.091521561883
  60     -0.060726043573
  61     -0.003741775477
  62     -0.224005464220
  63      0.147935578719
  64      0.082726888414
  65     -0.082518348221
  66     -0.053556737967
  67      0.035460772404
  68      0.047528358097
  69     -0.102692324601
  70      0.023603853691
  71      0.052915326546
  72      0.080292934492
  73     -0.053740442679
  74     -0.009677890450
  75      0.024193628792
  76      0.053568306424
  77      0.088405500167
  78     -0.054520140890
  79     -0.009616862699
  80      0.023983937182
  81      0.053972556557
  82      0.082317666303
  83     -0.053321299010
  84      0.036512863385
  85      0.020365429824
  86      0.048734337823
  87      0.073476123281
  88     -0.051464753801
  89      0.034396479594
 Ene=   0.12672288652058E+01
 Spin= Alpha
 Occup=    0.000000
   1      0.000206212285
   2      0.000101317148
   3     -0.001616903759
   4     -0.002679651377
   5      0.001925536533
   6      0.006690246888
   7     -0.006147405578
   8      0.018920575342
   9     -0.002335915345
  10     -0.001422476774
  11      0.001206102691
  12      0.000383414591
  13      0.000953091975
  14     -0.001098834220
  15     -0.001140105787
  16      0.006151410957
  17     -0.005023425606
  18     -0.001205488351
  19     -0.008572239783
  20      0.007712599715
  21      0.004240832940
  22      0.008866825978
  23     -0.005313479337
  24     -0.006068910872
  25      0.004081536358
  26     -0.007988768358
  27     -0.013099044976
  28      0.008920788875
  29      0.011288800199
  30     -0.004691750670
  31      0.009099520197
  32      0.011490370905
  33     -0.007922362164
  34     -0.001991925697
  35     -0.000005420292
  36      0.000012364316
  37     -0.000023585664
  38     -0.000053771607
  39     -0.000024635505
  40      0.000024444860
  41      0.000101841470
  42     -0.000382845894
  43      0.002488718053
  44     -0.004527881256
  45     -0.002662707769
  46      0.003159189482
  47     -0.001160815480
  48     -0.000276612709
  49     -0.014336190832
  50      0.004388099915
  51      0.001599691080
  52     -0.003503691237
  53      0.002401683617
  54      0.000527185962
  55      0.003686891796
  56     -0.000336946552
  57      0.001838381949
  58     -0.004814594292
  59     -0.004211015059
  60      0.001770645536
  61      0.000023669742
  62      0.016199766805
  63      0.002362827860
  64     -0.002300285715
  65      0.003427146808
  66      0.002349515197
  67     -0.001303633180
  68     -0.003003048370
  69      0.003975476175
  70      0.001939530125
  71      0.002024565972
  72     -0.000857961334
  73     -0.000881974226
  74      0.001005475276
  75     -0.003444734225
  76     -0.005301670803
  77     -0.006630313812
  78      0.003015694201
  79      0.000249008315
  80      0.001238086786
  81      0.000620822103
  82     -0.001288971297
  83      0.001718124523
  84     -0.000881420743
  85     -0.003375493033
  86     -0.005557745438
  87     -0.004425744947
  88      0.004192942697
  89     -0.001277108966
 Ene=   0.13196450405603E+01
 Spin= Alpha
 Occup=    0.000000
   1     -0.000007862049
   2     -0.000004107305
   3      0.000085435457
   4      0.000158746285
   5     -0.000128759487
   6     -0.000370531463
   7      0.000485736753
   8     -0.003796787797
   9      0.000081247453
  10      0.000200075285
  11     -0.000017117773
  12     -0.000039703816
  13     -0.000142472025
  14      0.000011550899
  15      0.000035565608
  16     -0.000858197473
  17      0.000065327845
  18      0.000157361811
  19      0.001205449289
  20     -0.000105871820
  21     -0.000206338224
  22     -0.010301459675
  23     -0.057452555364
  24     -0.090275468299
  25      0.008315061345
  26      0.012244429832
  27      0.013247753301
  28      0.075185397138
  29      0.119559904646
  30     -0.010615837762
  31     -0.015968467563
  32     -0.001590978080
  33      0.001841202422
  34     -0.001478106243
  35     -0.000012228049
  36     -0.000082385374
  37     -0.000044612709
  38     -0.000378718074
  39     -0.000157409245
  40      0.000080833611
  41      0.000017152949
  42      0.000152884530
  43     -0.002560996593
  44      0.011582761739
  45     -0.030897796561
  46     -0.047962335213
  47     -0.003928867140
  48      0.199990844437
  49      0.307593541487
  50      0.022832125120
  51     -0.009391514135
  52     -0.035997195265
  53     -0.073457334447
  54      0.130281831494
  55      0.062527394959
  56      0.000231320011
  57     -0.000722577920
  58     -0.004709092837
  59      0.032534154947
  60      0.047253695200
  61      0.003584834281
  62     -0.202772929243
  63     -0.307397596118
  64     -0.026799431949
  65     -0.013758591972
  66     -0.069749543571
  67     -0.091210229531
  68     -0.111306844070
  69     -0.041246877501
  70     -0.065731272294
  71     -0.131357699401
  72      0.232660523919
  73     -0.078575061489
  74     -0.159124536888
  75      0.063668096573
  76      0.129355239950
  77     -0.177363425495
  78      0.164367041169
  79      0.165929902955
  80     -0.064877465033
  81     -0.130288007376
  82      0.121126971091
  83     -0.157610951439
  84      0.213697839190
  85      0.065830711547
  86      0.131358398618
  87     -0.176594309731
  88      0.071116940809
  89     -0.221414054021
 Ene=   0.13196450405604E+01
 Spin= Alpha
 Occup=    0.000000
   1      0.000031758546
   2      0.000015744577
   3     -0.000263881856
   4     -0.000447812262
   5      0.000330922923
   6      0.001099446181
   7     -0.001042934985
   8      0.001763851502
   9     -0.000204110474
  10     -0.000236384664
  11      0.000198796815
  12     -0.000029552045
  13      0.000156502672
  14     -0.000128911640
  15      0.000019014319
  16      0.001078393202
  17     -0.000877741234
  18      0.000140417694
  19     -0.001606344502
  20      0.001227624102
  21     -0.000219531622
  22      0.003555040435
  23     -0.000900458051
  24     -0.000221965147
  25      0.000704496210
  26     -0.001986505578
  27     -0.004671324854
  28      0.001322330424
  29      0.000222767804
  30     -0.000516070264
  31      0.002358725755
  32      0.001521863164
  33     -0.000726239679
  34      0.000322740798
  35     -0.000001748334
  36     -0.000005050374
  37      0.000004010532
  38      0.000000113262
  39      0.000003105052
  40     -0.000000426590
  41      0.000022858955
  42      0.000080809181
  43     -0.000861518457
  44      0.001013854494
  45     -0.000335559520
  46      0.000220381947
  47      0.000014017962
  48      0.000855806867
  49     -0.000741005196
  50      0.000965504634
  51      0.000614414039
  52     -0.000428568623
  53      0.000079921531
  54     -0.000028264314
  55      0.000927265506
  56      0.000072072243
  57     -0.000973823552
  58      0.002067271815
  59     -0.000343495180
  60      0.000321822351
  61     -0.000071751541
  62      0.000845819519
  63     -0.001179243827
  64     -0.000500125288
  65      0.000732232127
  66     -0.000053721945
  67      0.000085227943
  68     -0.000282743017
  69      0.000887611431
  70     -0.000304699352
  71     -0.000745444874
  72     -0.000384815653
  73     -0.000082311789
  74      0.000181470757
  75     -0.000467917489
  76     -0.000770596010
  77     -0.001044592096
  78      0.000877790864
  79      0.000432118330
  80     -0.000662953477
  81     -0.001044729794
  82     -0.000738990551
  83      0.000659666960
  84     -0.000418595089
  85     -0.000334987162
  86     -0.000681799094
  87     -0.000627618502
  88      0.000063546221
  89     -0.000575795433
 Ene=   0.13701670381156E+01
 Spin= Alpha
 Occup=    0.000000
   1      0.000036862463
   2      0.000018065623
   3     -0.000275866723
   4     -0.000443186104
   5      0.000310258871
   6      0.001127569190
   7     -0.000921182629
   8     -0.000904889722
   9      0.000301865566
  10      0.000135565534
  11      0.000700275554
  12     -0.000411003408
  13     -0.000107619386
  14     -0.000497904174
  15      0.000291939816
  16     -0.000488102447
  17     -0.002960866738
  18      0.001750683126
  19      0.000447488705
  20      0.003940434538
  21     -0.002372605248
  22     -0.065488286966
  23     -0.302447926750
  24     -0.474633200804
  25      0.046749006166
  26      0.061439590563
  27      0.101872844956
  28      0.470458214765
  29      0.738090743500
  30     -0.072863088879
  31     -0.095783063363
  32      0.000552662781
  33      0.000821534335
  34     -0.000208198930
  35     -0.000108118687
  36     -0.000697017865
  37     -0.000403081647
  38     -0.003172629180
  39     -0.001316746344
  40      0.000595314594
  41      0.000210156661
  42     -0.000118739219
  43     -0.001886707802
  44      0.012513391520
  45      0.050423291517
  46      0.079713955758
  47      0.005682156889
  48     -0.450426506322
  49     -0.692269860316
  50     -0.056790308886
  51      0.009103632954
  52      0.039461033084
  53      0.064347602027
  54     -0.003346439109
  55     -0.005766212040
  56     -0.000041601175
  57      0.001969720455
  58     -0.011921286148
  59     -0.050330075173
  60     -0.078278701425
  61     -0.007237036179
  62      0.445681332156
  63      0.687020083823
  64      0.054930774075
  65      0.009224301117
  66      0.041907471828
  67      0.064593123737
  68     -0.009358855386
  69     -0.010354273933
  70      0.159652051973
  71      0.264068527951
  72     -0.021544808289
  73     -0.185059030295
  74      0.161226903407
  75     -0.163319034788
  76     -0.267858231878
  77     -0.151414782200
  78     -0.072360629190
  79     -0.184166914052
  80      0.159960821379
  81      0.265376484708
  82      0.188468801951
  83      0.070968223217
  84     -0.134885365390
  85     -0.157056405153
  86     -0.261238577140
  87     -0.020160625340
  88      0.183603800517
  89      0.154572567396
 Ene=   0.13701670381160E+01
 Spin= Alpha
 Occup=    0.000000
   1      0.000045983282
   2      0.000023209369
   3     -0.000426043630
   4     -0.000752881405
   5      0.000581526219
   6      0.001798891313
   7     -0.001875861661
   8      0.002860329541
   9     -0.000157254697
  10     -0.000240675829
  11      0.000687141088
  12      0.000043420963
  13      0.000132486649
  14     -0.000464017233
  15     -0.000053870681
  16      0.001267329198
  17     -0.003001833788
  18     -0.000128275224
  19     -0.002173839851
  20      0.004135630696
  21      0.000130028149
  22      0.007138524726
  23     -0.004426623700
  24     -0.002962191966
  25     -0.001408029606
  26     -0.004721627337
  27     -0.008510225406
  28      0.006711562452
  29      0.004310011087
  30      0.003918064259
  31      0.005660620525
  32      0.003607842969
  33     -0.000500206277
  34      0.000969115494
  35     -0.000008974153
  36     -0.000024986508
  37      0.000013933166
  38     -0.000017115658
  39     -0.000003654908
  40     -0.000013970605
  41      0.000055441046
  42      0.000300822597
  43     -0.002302617659
  44      0.000061738002
  45      0.000263189495
  46      0.000855344403
  47      0.000445068249
  48     -0.002730725580
  49     -0.007267467243
  50      0.001327179814
  51      0.001513451185
  52     -0.000414974912
  53     -0.000268039581
  54      0.000327112169
  55      0.002060213702
  56      0.000262347720
  57     -0.003219697501
  58      0.007436342515
  59     -0.000636799386
  60      0.000183107811
  61     -0.000190764054
  62      0.003161388186
  63      0.000381051410
  64      0.000116023674
  65      0.001792859782
  66      0.000269251347
  67      0.001588797191
  68      0.000021096635
  69      0.002086380185
  70      0.001554055343
  71      0.001059225178
  72      0.000382864740
  73     -0.003421941172
  74      0.002414653502
  75     -0.002499166258
  76     -0.003669410343
  77     -0.004899166763
  78      0.001922499583
  79     -0.000747071967
  80     -0.001449056658
  81     -0.001381163022
  82     -0.003156332624
  83      0.002953349903
  84     -0.002100519217
  85     -0.001075487138
  86     -0.002779792782
  87      0.000357603235
  88     -0.000978143584
  89     -0.000084435871
 Ene=   0.14047225317620E+01
 Spin= Alpha
 Occup=    0.000000
   1      0.000018332093
   2      0.000009228640
   3     -0.000162413531
   4     -0.000281940199
   5      0.000213657201
   6      0.000690715636
   7     -0.000750146198
   8      0.003613023311
   9     -0.000569754446
  10      0.003174873891
  11      0.005552670602
  12      0.002845537737
  13     -0.002295646627
  14     -0.003853202184
  15     -0.002909493916
  16     -0.013340973790
  17     -0.023550610408
  18     -0.011706216930
  19      0.017423599915
  20      0.030712096184
  21      0.018629710894
  22     -0.003797319977
  23     -0.018742730665
  24     -0.002704542646
  25     -0.052500676131
  26     -0.024045301683
  27      0.005827100505
  28      0.029496117691
  29      0.003276798691
  30      0.082775646091
  31      0.037261018537