[Molden Format]
[Title]
generated by TRESC, real part2 of MOs of job Ni0-C2H4
 
[Atoms] AU
Ni   1  28    2.0327243480    6.6651129323   -0.4637853482
 C   2   6    4.4866582262    4.9116344944    1.3008835560
 C   3   6    4.8771137450    4.8741236186   -1.3947805326
 H   4   1    5.7310700770    6.0706468704    2.4997637439
 H   5   1    3.8369470533    3.1858198160    2.2645095603
 H   6   1    4.5308414173    3.1179949920   -2.4558991994
 H   7   1    6.4130479072    6.0088908466   -2.2212746715
[GTO]
  1 0
 s  6 1.0
    71074.8032110000        0.0049184150
    10672.0209410000        0.0200173975
     2428.1389007000        0.0784715325
      685.5359514800        0.2482002663
      223.1007286300        0.4665280195
       76.8420140400        0.3374151926
 s  1 1.0
      148.7112201600        1.0000000000
 s  1 1.0
       17.4591549900        1.0000000000
 s  1 1.0
        7.1625280700        1.0000000000
 s  1 1.0
       12.5561371300        1.0000000000
 s  1 1.0
        2.0735740500        1.0000000000
 s  1 1.0
        0.8538264100        1.0000000000
 s  1 1.0
        0.1053676600        1.0000000000
 s  1 1.0
        0.0381340900        1.0000000000
 p  5 1.0
      916.7360866200        0.0107030171
      216.0613991300        0.0711467350
       68.3839148200        0.2646675976
       24.5938439500        0.5093159720
        9.1392960200        0.3283291628
 p  1 1.0
        4.7193371700        1.0000000000
 p  1 1.0
        1.8161849200        1.0000000000
 p  1 1.0
        0.6784075100        1.0000000000
 d  4 1.0
       47.0938321100        0.0346401353
       13.1464639700        0.1833736831
        4.4170548900        0.4455621030
        1.4771565100        0.5627236040
 d  1 1.0
        0.4373592200        1.0000000000
 p  1 1.0
        0.1465880000        1.0000000000
 f  1 1.0
        2.1740000000        1.0000000000
 
  2 0
 s  5 1.0
     1238.4016938000        0.0059599745
      186.2900499200        0.0422621111
       42.2511763500        0.1866575214
       11.6765579300        0.4675815865
        3.5930506500        0.4422897287
 s  1 1.0
        0.4024514700        1.0000000000
 s  1 1.0
        0.1309018300        1.0000000000
 p  3 1.0
        9.4680970600        0.0570294585
        2.0103545100        0.3130471495
        0.5477100500        0.7605135301
 p  1 1.0
        0.1526861400        1.0000000000
 d  1 1.0
        0.8000000000        1.0000000000
 
  3 0
 s  5 1.0
     1238.4016938000        0.0059599745
      186.2900499200        0.0422621111
       42.2511763500        0.1866575214
       11.6765579300        0.4675815865
        3.5930506500        0.4422897287
 s  1 1.0
        0.4024514700        1.0000000000
 s  1 1.0
        0.1309018300        1.0000000000
 p  3 1.0
        9.4680970600        0.0570294585
        2.0103545100        0.3130471495
        0.5477100500        0.7605135301
 p  1 1.0
        0.1526861400        1.0000000000
 d  1 1.0
        0.8000000000        1.0000000000
 
  4 0
 s  3 1.0
       13.0107010000        0.0391282527
        1.9622572000        0.2855840539
        0.4445379600        0.7689908602
 s  1 1.0
        0.1219496200        1.0000000000
 p  1 1.0
        0.8000000000        1.0000000000
 
  5 0
 s  3 1.0
       13.0107010000        0.0391282527
        1.9622572000        0.2855840539
        0.4445379600        0.7689908602
 s  1 1.0
        0.1219496200        1.0000000000
 p  1 1.0
        0.8000000000        1.0000000000
 
  6 0
 s  3 1.0
       13.0107010000        0.0391282527
        1.9622572000        0.2855840539
        0.4445379600        0.7689908602
 s  1 1.0
        0.1219496200        1.0000000000
 p  1 1.0
        0.8000000000        1.0000000000
 
  7 0
 s  3 1.0
       13.0107010000        0.0391282527
        1.9622572000        0.2855840539
        0.4445379600        0.7689908602
 s  1 1.0
        0.1219496200        1.0000000000
 p  1 1.0
        0.8000000000        1.0000000000
 
[5D]
[7F]
[9G]
[MO]
 Ene=   0.84705728990268E+00
 Spin= Alpha
 Occup=    0.000000
   1      0.000006500430
   2      0.000002777677
   3     -0.000005870062
   4      0.000022865084
   5     -0.000044649475
   6      0.000000398205
   7      0.000195561417
   8      0.002983860206
   9     -0.000543276470
  10      0.002100770242
  11     -0.000309977691
  12     -0.000000485600
  13     -0.001925153896
  14      0.000303158350
  15      0.000018679120
  16     -0.006195422830
  17      0.000843231313
  18      0.000048251153
  19      0.006086342176
  20     -0.000706009570
  21     -0.000212967046
  22     -0.007207461615
  23     -0.026007460014
  24      0.018440822514
  25      0.003457887917
  26     -0.002957373185
  27     -0.002242029110
  28     -0.007267293195
  29      0.005573080961
  30      0.001099389098
  31     -0.001133432796
  32     -0.197038266637
  33      0.029843182190
  34     -0.003656619783
  35      0.000226576816
  36     -0.000191715120
  37      0.000181657719
  38     -0.000332858139
  39      0.000747539731
  40      0.000047331041
  41     -0.000156986862
  42      0.027820393829
  43     -0.286997672210
  44      1.640175139125
  45      0.075138519630
  46      0.019133938937
  47     -0.018333817345
  48     -0.591787883657
  49      0.023475153005
  50      0.028179113916
  51      0.014186282350
  52     -0.007419626882
  53      0.001448961920
  54      0.008548769160
  55     -0.018126526274
  56     -0.027956110702
  57      0.288844650406
  58     -1.646312062221
  59      0.066029208347
  60     -0.039454290491
  61      0.020296231568
  62     -0.572042567126
  63      0.145624060772
  64     -0.045469862745
  65     -0.016985735979
  66     -0.002579786069
  67      0.005614861854
  68     -0.007383607013
  69      0.016851972261
  70     -0.098290141355
  71     -0.076160404786
  72      0.003013160149
  73     -0.004116215726
  74     -0.010452845777
  75     -0.100560954079
  76     -0.077914577249
  77      0.004306228887
  78      0.007371239805
  79      0.007635501666
  80      0.101227431225
  81      0.078719543601
  82      0.002243121552
  83     -0.008177785116
  84     -0.007746619374
  85      0.099268081668
  86      0.077557511444
  87      0.003767889553
  88      0.003082762853
  89      0.010594087246
 Ene=   0.11183238012367E+01
 Spin= Alpha
 Occup=    0.000000
   1      0.000001159805
   2      0.000000548672
   3     -0.000006929702
   4     -0.000009967720
   5      0.000005818097
   6      0.000027399633
   7     -0.000015844031
   8      0.000060986733
   9     -0.000018912864
  10      0.000014337990
  11      0.000009831321
  12      0.000027891681
  13     -0.000072354905
  14     -0.000006048046
  15     -0.000031150799
  16     -0.000058257371
  17     -0.000006972116
  18     -0.000057351211
  19      0.000327864916
  20     -0.000060319413
  21      0.000007729653
  22      0.000142544654
  23      0.000685927120
  24      0.000572330230
  25      0.001980331082
  26      0.000779321719
  27     -0.000538549739
  28     -0.002323241251
  29     -0.001275096644
  30     -0.002388275664
  31     -0.000926855896
  32     -0.001215497338
  33      0.000328909349
  34      0.000197766200
  35     -0.000003923133
  36      0.000004413831
  37     -0.000000516968
  38      0.000014357764
  39      0.000002282879
  40     -0.000019836616
  41      0.000002732268
  42     -0.000012584368
  43     -0.000557354328
  44      0.005053214011
  45     -0.000176472464
  46     -0.000265587229
  47     -0.000095356977
  48     -0.000999314495
  49      0.002147470148
  50      0.003534868633
  51     -0.000036044664
  52     -0.000253953201
  53     -0.000456677736
  54      0.001164571090
  55      0.000528957460
  56      0.000000473055
  57      0.000637719131
  58     -0.005139533777
  59     -0.000080461047
  60      0.000315035984
  61      0.000250287794
  62     -0.001420485933
  63     -0.001263848447
  64     -0.002912063948
  65      0.000057867114
  66      0.000457888954
  67      0.000539869111
  68      0.001439815511
  69      0.000608315134
  70     -0.001473092355
  71     -0.001657115283
  72     -0.000642265338
  73      0.000741805782
  74     -0.000261399428
  75      0.000673065497
  76      0.000938086906
  77      0.000587691592
  78     -0.000689624897
  79      0.000600458475
  80     -0.000257157191
  81     -0.000469511554
  82     -0.000826528967
  83     -0.001157660908
  84      0.000636287193
  85      0.001066897716
  86      0.001201940425
  87      0.000758474618
  88      0.001112349697
  89     -0.000943179420
 Ene=   0.11183238012367E+01
 Spin= Alpha
 Occup=    0.000000
   1      0.000048243462
   2      0.000023456746
   3     -0.000323091984
   4     -0.000484610369
   5      0.000315407489
   6      0.001277195247
   7     -0.000929964295
   8      0.003432816416
   9     -0.000553546870
  10     -0.000435946267
  11     -0.003432887417
  12     -0.004754845104
  13      0.000483236644
  14      0.003887715502
  15      0.005565293226
  16      0.000939310360
  17      0.006974630845
  18      0.008846451390
  19     -0.000254333745
  20     -0.000919453933
  21      0.000691207650
  22     -0.007860907535
  23     -0.053479323784
  24     -0.031119443820
  25     -0.393845681849
  26     -0.166716494409
  27      0.010207364845
  28      0.070158350224
  29      0.040597332622
  30      0.515557629724
  31      0.218333985946
  32     -0.002384044273
  33     -0.026185173519
  34     -0.043044063019
  35      0.000063229649
  36      0.000233572578
  37      0.000226541695
  38      0.000521876913
  39     -0.000098352235
  40      0.003210782210
  41     -0.000586218507
  42     -0.000435553103
  43      0.003556318126
  44     -0.010406731716
  45     -0.001470714436
  46     -0.008318753011
  47     -0.010505339926
  48     -0.003542594909
  49     -0.042383434325
  50     -0.066163895273
  51      0.008851173319
  52      0.025031602009
  53      0.076250314915
  54     -0.261903669091
  55     -0.119039224872
  56      0.000054975550
  57     -0.000656344108
  58      0.005565655049
  59     -0.000888546248
  60     -0.008140958531
  61     -0.011175286349
  62     -0.004952141541
  63     -0.043220447605
  64     -0.070762989875
  65     -0.016985185397
  66     -0.094183121415
  67     -0.114791218765
  68     -0.240567858013
  69     -0.094075176010
  70      0.039530981089
  71      0.045279731107
  72      0.099109248435
  73     -0.197436678463
  74      0.120865342836
  75     -0.038383474124
  76     -0.042256872875
  77     -0.099892090162
  78      0.195306851218
  79     -0.121761593360
  80     -0.041138910784
  81     -0.045951712662
  82      0.155116101566
  83      0.157978004724
  84     -0.116982263832
  85      0.039682742705
  86      0.043822172530
  87     -0.154759493390
  88     -0.160666361039
  89      0.116440223070
 Ene=   0.12219155107539E+01
 Spin= Alpha
 Occup=    0.000000
   1     -0.000098199085
   2     -0.000048324864
   3      0.000781127970
   4      0.001305261222
   5     -0.000945272861
   6     -0.003255452137
   7      0.003315732663
   8     -0.022554314801
   9      0.002366844419
  10      0.000957698871
  11      0.000632413911
  12     -0.000515770833
  13     -0.001833781157
  14     -0.000279258421
  15      0.000388791741
  16     -0.003364832700
  17     -0.002666345784
  18      0.002099792895
  19      0.007706104671
  20      0.003074800171
  21     -0.002863706514
  22      0.006490981488
  23     -0.004447355212
  24     -0.000073576312
  25     -0.000037266544
  26      0.001197257576
  27     -0.007777338756
  28      0.009017813255
  29     -0.000066012908
  30     -0.001034892317
  31     -0.000104469910
  32     -0.001710640422
  33     -0.011564103253
  34      0.007820716144
  35     -0.000012240469
  36     -0.000043609224
  37      0.000021671457
  38     -0.000009663993
  39     -0.000029798339
  40     -0.000001452859
  41     -0.000021021546
  42      0.001020264389
  43     -0.005957430315
  44     -0.004104916780
  45      0.002289050894
  46      0.003824301679
  47     -0.002190330312
  48      0.003173477983
  49     -0.011768742540
  50      0.001621715801
  51      0.000860153310
  52      0.004166986833
  53     -0.002725935981
  54      0.000389830098
  55     -0.000994133749
  56      0.000949712288
  57     -0.012566912398
  58      0.046263461108
  59     -0.000087053158
  60      0.001677884746
  61     -0.001619389324
  62      0.006455124542
  63     -0.004713859670
  64      0.008447638988
  65     -0.000298583253
  66     -0.002928516949
  67      0.001945759911
  68      0.000232521762
  69     -0.000936150220
  70      0.001548817552
  71      0.001339909225
  72      0.001845681473
  73      0.001276267957
  74     -0.003044411458
  75     -0.000643408194
  76     -0.001600426437
  77      0.001621104563
  78      0.001665983659
  79      0.000030217616
  80     -0.002848427186
  81     -0.003595093392
  82     -0.000039124856
  83      0.001835979615
  84      0.000595159326
  85     -0.005042462964
  86     -0.006598024101
  87     -0.000220281142
  88     -0.000754931847
  89     -0.000454519190
 Ene=   0.12219155107543E+01
 Spin= Alpha
 Occup=    0.000000
   1      0.006272520278
   2      0.003086534448
   3     -0.049858441866
   4     -0.083291739258
   5      0.060295829081
   6      0.207799835593
   7     -0.211590378124
   8      1.439096503493
   9     -0.150296761759
  10     -0.007882319553
  11     -0.049133595639
  12      0.032522077383
  13      0.005755182513
  14      0.036505293101
  15     -0.023719291402
  16      0.032381463793
  17      0.200039678065
  18     -0.132575817554
  19     -0.043861135391
  20     -0.270865984677
  21      0.178201435717
  22     -0.460474757088
  23      0.127120250621
  24     -0.023869566188
  25      0.024723005104
  26     -0.072902927239
  27      0.612914837992
  28     -0.162775523501
  29      0.019306899532
  30      0.004362901527
  31      0.008304721404
  32      0.113456401380
  33      0.740997705539
  34     -0.494494751746
  35      0.001012306927
  36      0.002434453708
  37     -0.001684497203
  38     -0.000545685972
  39      0.000790537145
  40      0.000332933472
  41      0.001520901686
  42     -0.063212482600
  43      0.591715645433
  44     -1.332935786048
  45     -0.092877838575
  46     -0.174075719558
  47      0.120995921782
  48      0.142045882096
  49      0.462723716535
  50     -0.308524538395
  51     -0.067046632292
  52     -0.218224432739
  53      0.154585946326
  54      0.004557058349
  55      0.039680537546
  56     -0.063144876670
  57      0.595175397329
  58     -1.365776321159
  59      0.035438296073
  60     -0.191506552464
  61      0.123204209736
  62     -0.003090912614
  63      0.481954568993
  64     -0.321794523329
  65      0.050247320928
  66      0.212671222814
  67     -0.138095756923
  68     -0.056964640782
  69      0.087710791329
  70      0.109456827210
  71      0.165010223972
  72     -0.060165407324
  73     -0.016268697490
  74      0.113027732297
  75      0.111808813263
  76      0.169197597715
  77     -0.068394929355
  78     -0.107488949760
  79     -0.020115976186
  80      0.112233339047
  81      0.166904945045
  82      0.038335746152
  83     -0.121948232384
  84     -0.022043231388
  85      0.113773870271
  86      0.170786051842
  87      0.048249758889
  88     -0.033868053668
  89      0.115179563828
 Ene=   0.12672313454163E+01
 Spin= Alpha
 Occup=    0.000000
   1      0.000215431436
   2      0.000105843706
   3     -0.001689647366
   4     -0.002800825965
   5      0.002012878871
   6      0.006992034485
   7     -0.006427278424
   8      0.019804151444
   9     -0.002447325629
  10      0.000727934082
  11     -0.001652698829
  12      0.001088214567
  13     -0.001883892102
  14      0.001317921332
  15     -0.000828197456
  16     -0.002436382903
  17      0.007021839807
  18     -0.004637812049
  19      0.007449525643
  20     -0.010345415672
  21      0.006693471993
  22      0.010570954066
  23     -0.000064920876
  24      0.002469869548
  25      0.003600450264
  26     -0.009470672961
  27     -0.016220668921
  28     -0.001568070931
  29     -0.004675951403
  30     -0.003787229457
  31      0.011475871785
  32     -0.004123754857
  33      0.012548730065
  34     -0.007991268118
  35     -0.000008515750
  36      0.000037629394
  37     -0.000015333405
  38      0.000046982133
  39      0.000003451720
  40      0.000008729438
  41      0.000102492506
  42     -0.000409418297
  43      0.002800335343
  44     -0.004972608290
  45     -0.001327804824
  46     -0.003628455711
  47      0.001797281290
  48      0.005763468682
  49      0.009445860646
  50      0.001670923379
  51      0.001645258209
  52     -0.003775019460
  53      0.002215600054
  54     -0.001602648014
  55      0.002747016390
  56     -0.000330287245
  57      0.001623886339
  58     -0.004614010164
  59      0.000101946387
  60     -0.003678843432
  61      0.003153163137
  62     -0.003573453921
  63      0.007777235316
  64     -0.013443740248
  65      0.003656274030
  66      0.002534254242
  67     -0.001621697894
  68     -0.001519259214
  69      0.005151944196
  70     -0.002206051485
  71     -0.003540754129
  72      0.000749652923
  73     -0.004140342828
  74      0.003255572716
  75      0.000853022034
  76      0.000602836646
  77      0.001206248881
  78     -0.001548948762
  79      0.001730777481
  80     -0.002868638764
  81     -0.005088427882
  82     -0.001371900033
  83     -0.005628581624
  84      0.002748512365
  85      0.000367519137
  86     -0.000704259208
  87     -0.000828367744
  88     -0.002332343167
  89      0.001067523750
 Ene=   0.12672313454166E+01
 Spin= Alpha
 Occup=    0.000000
   1      0.004246055823
   2      0.002086106630
   3     -0.033306373496
   4     -0.055212665524
   5      0.039683489777
   6      0.137821641964
   7     -0.126717904053
   8      0.391263327657
   9     -0.048307338961
  10     -0.004806711785
  11     -0.029645948939
  12      0.021389031606
  13      0.003385415158
  14      0.019795020407
  15     -0.016080740697
  16      0.020740224136
  17      0.127907480832
  18     -0.091222383543
  19     -0.029317772677
  20     -0.177111837743
  21      0.130963425170
  22      0.199467254279
  23     -0.035606463172
  24     -0.018748421430
  25      0.076462046988
  26     -0.177280631787
  27     -0.297531837795
  28      0.057514194737
  29      0.020293152168
  30     -0.088120071853
  31      0.211178064553
  32      0.035138566291
  33      0.230536410586
  34     -0.156361594080
  35      0.000157555104
  36      0.000376732900
  37     -0.000230979295
  38     -0.000056628541
  39      0.000442351384
  40      0.000343058127
  41      0.001932539178
  42     -0.007291690600
  43      0.042865748118
  44     -0.084266447112
  45     -0.025212116215
  46     -0.070083169864
  47      0.048661453664
  48      0.112254926499
  49      0.156942021165
  50     -0.112932226144
  51      0.033209068964
  52     -0.081161401457
  53      0.052753599864
  54     -0.020655361587
  55      0.070058351410
  56     -0.007534336360
  57      0.046683335538
  58     -0.109207384586
  59      0.003056914938
  60     -0.074233586238
  61      0.049467534180
  62     -0.067235505217
  63      0.181526389250
  64     -0.120580349731
  65      0.067062653444
  66      0.043766765388
  67     -0.028432288026
  68     -0.038141646368
  69      0.083543917233
  70     -0.018851548217
  71     -0.042539771046
  72      0.007864252162
  73     -0.064358745194
  74      0.042835258032
  75     -0.019977698770
  76     -0.043991854919
  77      0.007725388417
  78     -0.072916393254
  79      0.044745690102
  80     -0.019686335814
  81     -0.044116486631
  82     -0.029917924548
  83     -0.067784714300
  84      0.043722970817
  85     -0.016301817779
  86     -0.039217418394
  87     -0.027729806644
  88     -0.058907215866
  89      0.041062708662
 Ene=   0.13196451032078E+01
 Spin= Alpha
 Occup=    0.000000
   1      0.000016169043
   2      0.000008374864
   3     -0.000163317833
   4     -0.000295213152
   5      0.000234670210
   6      0.000699306439
   7     -0.000848640522
   8      0.005466515969
   9     -0.000141869404
  10     -0.000060467572
  11     -0.000294877253
  12      0.000061390490
  13      0.000048478652
  14      0.000203048583
  15     -0.000047982329
  16      0.000236342742
  17      0.001284503383
  18     -0.000253451860
  19     -0.000312070207
  20     -0.001819918911
  21      0.000396371659
  22      0.015151968341
  23      0.080115489491
  24      0.124625299081
  25     -0.011498920022
  26     -0.017257177377
  27     -0.019724631548
  28     -0.105654180638
  29     -0.164509392056
  30      0.014880934742
  31      0.022379206838
  32      0.001041571784
  33      0.002561396655
  34     -0.002670594283
  35      0.000014773185
  36      0.000114264059
  37      0.000062122066
  38      0.000526457500
  39      0.000215147712
  40     -0.000112486857
  41     -0.000018977411
  42     -0.000226350473
  43      0.002512312132
  44     -0.008645065887
  45      0.005146813132
  46      0.042486071442
  47      0.066716653834
  48     -0.032853905538
  49     -0.276674553708
  50     -0.426519256116
  51      0.013195917537
  52      0.049652287818
  53      0.101920322631
  54     -0.180618818413
  55     -0.086311528790
  56     -0.000268442080
  57      0.001606565755
  58     -0.000107358282
  59     -0.005189287526
  60     -0.044768699567
  61     -0.065657045346
  62      0.035631583878
  63      0.281144187329
  64      0.425895977257
  65      0.019057889834
  66      0.096542685800
  67      0.126502915925
  68      0.154318947901
  69      0.057111312521
  70      0.090340962719
  71      0.181217863067
  72      0.220334769846
  73     -0.322735363515
  74      0.109097470267
  75     -0.089018566113
  76     -0.180105814309
  77     -0.230116965580
  78      0.245320850266
  79     -0.227477049381
  80      0.090463372906
  81      0.181035137102
  82     -0.296381109516
  83     -0.167661268289
  84      0.218405466699
  85     -0.090606081180
  86     -0.181486181892
  87      0.306600074758
  88      0.244939486382
  89     -0.098820577197
 Ene=   0.13196451032085E+01
 Spin= Alpha
 Occup=    0.000000
   1      0.000021396250
   2      0.000010608654
   3     -0.000178066753
   4     -0.000302437514
   5      0.000223654824
   6      0.000742194979
   7     -0.000706189826
   8      0.001236317392
   9     -0.000138311022
  10     -0.000021529427
  11     -0.000202116701
  12      0.000071897140
  13      0.000006783404
  14      0.000133325064
  15     -0.000048757180
  16      0.000101777807
  17      0.000891288445
  18     -0.000353742120
  19     -0.000127799175
  20     -0.001254010777
  21      0.000592059448
  22      0.002466748362
  23     -0.000069699139
  24      0.000590820892
  25      0.000778110684
  26     -0.001265270955
  27     -0.003257410324
  28      0.000092208908
  29     -0.000850599816
  30     -0.001314615688
  31      0.001243307381
  32      0.000138290222
  33      0.000766480590
  34     -0.000956703133
  35     -0.000001211020
  36     -0.000002547919
  37      0.000002592374
  38      0.000004881523
  39      0.000003024729
  40      0.000008928711
  41      0.000013498106
  42      0.000050892776
  43     -0.000565235659
  44      0.000735394729
  45      0.000027716546
  46     -0.000023258825
  47      0.000479351780
  48      0.000474524469
  49     -0.000705718110
  50     -0.002483742424
  51      0.000511786946
  52      0.000088742661
  53      0.000849372750
  54     -0.001495420608
  55     -0.000080867079
  56      0.000047250411
  57     -0.000623341280
  58      0.001229177082
  59     -0.000088165103
  60     -0.000534891044
  61     -0.000250373376
  62     -0.000097973406
  63      0.002639027778
  64      0.002328778864
  65      0.000565064006
  66      0.000349406160
  67      0.000556606958
  68      0.000361133520
  69      0.000793597564
  70      0.000066182736
  71      0.000369993260
  72      0.001430051405
  73     -0.002737717188
  74      0.001147111120
  75     -0.000598381912
  76     -0.001393018937
  77     -0.001064359156
  78      0.001475906218
  79     -0.001058460834
  80      0.000378064735
  81      0.000604355416
  82     -0.001830276067
  83     -0.000765119300
  84      0.001434065872
  85     -0.001015101925
  86     -0.001736664746
  87      0.001248657385
  88      0.000485627373
  89      0.000017286162
 Ene=   0.13701678195783E+01
 Spin= Alpha
 Occup=    0.000000
   1     -0.000031912963
   2     -0.000016084537
   3      0.000294236428
   4      0.000519437664
   5     -0.000400457085
   6     -0.001242420337
   7      0.001292480351
   8     -0.002025887889
   9      0.000130187699
  10      0.000079248531
  11      0.000665409863
  12      0.000312896931
  13     -0.000048319836
  14     -0.000431941963
  15     -0.000235365205
  16     -0.000356926415
  17     -0.002921309659
  18     -0.001152039330
  19      0.000494442182
  20      0.003986348295
  21      0.001137982829
  22     -0.006283223397
  23     -0.003984107148
  24     -0.007234916947
  25     -0.005299996399
  26      0.001306734905
  27      0.008083394614
  28      0.006642583551
  29      0.011516842226
  30      0.008866741556
  31     -0.000096831952
  32     -0.000206007847
  33     -0.000573285546
  34      0.003292420409
  35      0.000003865389
  36      0.000003260416
  37     -0.000015211709
  38     -0.000057391880
  39     -0.000022817192
  40     -0.000035698922
  41     -0.000023585928
  42     -0.000192830308
  43      0.001781082310
  44     -0.001940268918
  45     -0.000032917472
  46      0.001275308282
  47      0.001437168115
  48     -0.002042072107
  49     -0.009950086142
  50     -0.012685225019
  51     -0.001076180925
  52      0.000323484737
  53     -0.000232132551
  54      0.001907891486
  55     -0.000530180382
  56     -0.000186069041
  57      0.001910028766
  58     -0.003023043144
  59      0.000117184741
  60     -0.000249272646
  61     -0.000932350339
  62      0.000932905184
  63      0.003189380459
  64      0.007772830584
  65     -0.000727048227
  66      0.001985740526
  67      0.001999232047
  68      0.001575171657
  69     -0.000884130154
  70      0.004500504354
  71      0.006220259188
  72      0.002703070602
  73      0.003976171459
  74     -0.006648865141
  75     -0.003449634261
  76     -0.004054513207
  77     -0.004297272983
  78     -0.005990541030
  79     -0.000569268535
  80      0.001394767718
  81      0.003924600191
  82     -0.001640541105
  83     -0.001251116433
  84      0.001595106973
  85     -0.000131730190
  86     -0.001527136483
  87      0.003380573668
  88      0.003979601344
  89     -0.001187736047
 Ene=   0.13701678195786E+01
 Spin= Alpha
 Occup=    0.000000
   1     -0.000030672190
   2     -0.000015121676
   3      0.000239106803
   4      0.000394268155
   5     -0.000282082336
   6     -0.000988519019
   7      0.000856483566
   8      0.000439755486
   9     -0.000210835420
  10      0.000727918826
  11     -0.000114941466
  12     -0.000537095325
  13     -0.000533284557
  14      0.000087679063
  15      0.000379837293
  16     -0.003032315772
  17      0.000390816242
  18      0.002286144680
  19      0.004017263911
  20     -0.000286058132
  21     -0.003071273454
  22      0.044125606225
  23      0.209893275472
  24      0.334948505586
  25     -0.032500249005
  26     -0.042887229587
  27     -0.068626387774
  28     -0.324964192110
  29     -0.521831037158
  30      0.050262414310
  31      0.067268546869
  32      0.003043041419
  33     -0.001159823568
  34     -0.000437302188
  35      0.000076204094
  36      0.000492071880
  37      0.000280609874
  38      0.002224156838
  39      0.000927585343
  40     -0.000416610570
  41     -0.000155459650
  42      0.000130810212
  43      0.004516653328
  44     -0.031420040221
  45     -0.003003780611
  46     -0.034494017613
  47     -0.056631533326
  48      0.043528641991
  49      0.314585605532
  50      0.486692450897
  51     -0.006823081351
  52     -0.026985267018
  53     -0.045592834055
  54      0.002626484062
  55      0.003089170363
  56     -0.000111277179
  57     -0.003672326919
  58      0.029683784981
  59      0.005827547994
  60      0.034186972677
  61      0.055597939756
  62     -0.034391424534
  63     -0.312555026421
  64     -0.482427916298
  65     -0.006160610460
  66     -0.028941092979
  67     -0.045698582264
  68      0.006192858421
  69      0.007858488719
  70     -0.109723499442
  71     -0.182898626009
  72     -0.112334321314
  73      0.016157229650
  74      0.129089883694
  75      0.117044045244
  76      0.190485868902
  77      0.130131432264
  78      0.107670620422
  79      0.049939665558
  80     -0.114320360341
  81     -0.188173600088
  82      0.095437113393
  83     -0.133358182138
  84     -0.049436887514
  85      0.108031188374
  86      0.181312317553
  87     -0.107714453175
  88      0.013057409960
  89     -0.127815185888
 Ene=   0.14047233909610E+01
 Spin= Alpha
 Occup=    0.000000
   1     -0.000003862120
   2     -0.000001924911
   3      0.000033217501
   4      0.000057395693
   5     -0.000042889118
   6     -0.000142333290
   7      0.000151551312
   8     -0.000602202880
   9      0.000072816111
  10     -0.001563883258
  11      0.000318581506
  12      0.000059930270
  13      0.001712462236
  14     -0.000306307175
  15     -0.000058889767
  16      0.006390539826
  17     -0.001326007247
  18     -0.000239519100
  19     -0.010594357659
  20      0.002067712872
  21      0.000344263141
  22      0.000428853835
  23      0.000773783881
  24     -0.010569487740
  25     -0.000876405453
  26      0.001296597843
  27     -0.000877325973
  28     -0.002088953296
  29      0.015931206352
  30      0.001454295721
  31     -0.001825574556