[Molden Format]
[Title]
generated by TRESC, real part1 of MOs of job Ni0-C2H4
 
[Atoms] AU
Ni   1  28    2.0327243480    6.6651129323   -0.4637853482
 C   2   6    4.4866582262    4.9116344944    1.3008835560
 C   3   6    4.8771137450    4.8741236186   -1.3947805326
 H   4   1    5.7310700770    6.0706468704    2.4997637439
 H   5   1    3.8369470533    3.1858198160    2.2645095603
 H   6   1    4.5308414173    3.1179949920   -2.4558991994
 H   7   1    6.4130479072    6.0088908466   -2.2212746715
[GTO]
  1 0
 s  6 1.0
    71074.8032110000        0.0049184150
    10672.0209410000        0.0200173975
     2428.1389007000        0.0784715325
      685.5359514800        0.2482002663
      223.1007286300        0.4665280195
       76.8420140400        0.3374151926
 s  1 1.0
      148.7112201600        1.0000000000
 s  1 1.0
       17.4591549900        1.0000000000
 s  1 1.0
        7.1625280700        1.0000000000
 s  1 1.0
       12.5561371300        1.0000000000
 s  1 1.0
        2.0735740500        1.0000000000
 s  1 1.0
        0.8538264100        1.0000000000
 s  1 1.0
        0.1053676600        1.0000000000
 s  1 1.0
        0.0381340900        1.0000000000
 p  5 1.0
      916.7360866200        0.0107030171
      216.0613991300        0.0711467350
       68.3839148200        0.2646675976
       24.5938439500        0.5093159720
        9.1392960200        0.3283291628
 p  1 1.0
        4.7193371700        1.0000000000
 p  1 1.0
        1.8161849200        1.0000000000
 p  1 1.0
        0.6784075100        1.0000000000
 d  4 1.0
       47.0938321100        0.0346401353
       13.1464639700        0.1833736831
        4.4170548900        0.4455621030
        1.4771565100        0.5627236040
 d  1 1.0
        0.4373592200        1.0000000000
 p  1 1.0
        0.1465880000        1.0000000000
 f  1 1.0
        2.1740000000        1.0000000000
 
  2 0
 s  5 1.0
     1238.4016938000        0.0059599745
      186.2900499200        0.0422621111
       42.2511763500        0.1866575214
       11.6765579300        0.4675815865
        3.5930506500        0.4422897287
 s  1 1.0
        0.4024514700        1.0000000000
 s  1 1.0
        0.1309018300        1.0000000000
 p  3 1.0
        9.4680970600        0.0570294585
        2.0103545100        0.3130471495
        0.5477100500        0.7605135301
 p  1 1.0
        0.1526861400        1.0000000000
 d  1 1.0
        0.8000000000        1.0000000000
 
  3 0
 s  5 1.0
     1238.4016938000        0.0059599745
      186.2900499200        0.0422621111
       42.2511763500        0.1866575214
       11.6765579300        0.4675815865
        3.5930506500        0.4422897287
 s  1 1.0
        0.4024514700        1.0000000000
 s  1 1.0
        0.1309018300        1.0000000000
 p  3 1.0
        9.4680970600        0.0570294585
        2.0103545100        0.3130471495
        0.5477100500        0.7605135301
 p  1 1.0
        0.1526861400        1.0000000000
 d  1 1.0
        0.8000000000        1.0000000000
 
  4 0
 s  3 1.0
       13.0107010000        0.0391282527
        1.9622572000        0.2855840539
        0.4445379600        0.7689908602
 s  1 1.0
        0.1219496200        1.0000000000
 p  1 1.0
        0.8000000000        1.0000000000
 
  5 0
 s  3 1.0
       13.0107010000        0.0391282527
        1.9622572000        0.2855840539
        0.4445379600        0.7689908602
 s  1 1.0
        0.1219496200        1.0000000000
 p  1 1.0
        0.8000000000        1.0000000000
 
  6 0
 s  3 1.0
       13.0107010000        0.0391282527
        1.9622572000        0.2855840539
        0.4445379600        0.7689908602
 s  1 1.0
        0.1219496200        1.0000000000
 p  1 1.0
        0.8000000000        1.0000000000
 
  7 0
 s  3 1.0
       13.0107010000        0.0391282527
        1.9622572000        0.2855840539
        0.4445379600        0.7689908602
 s  1 1.0
        0.1219496200        1.0000000000
 p  1 1.0
        0.8000000000        1.0000000000
 
[5D]
[7F]
[9G]
[MO]
 Ene=  -0.30448557026695E+03
 Spin= Alpha
 Occup=    1.000000
   1     -0.503598886821
   2     -0.025689379641
   3     -0.017959204725
   4      0.001945386403
   5      0.006020344772
   6     -0.000949757403
   7      0.000428426088
   8     -0.000146550830
   9      0.000048747790
  10      0.000000289323
  11      0.000003333129
  12     -0.000002319000
  13     -0.000000052712
  14     -0.000000850051
  15      0.000000272550
  16     -0.000000531787
  17     -0.000003379616
  18      0.000002142548
  19      0.000001161306
  20      0.000008119336
  21     -0.000004843400
  22     -0.000000415986
  23      0.000000431402
  24     -0.000000247141
  25      0.000001108334
  26     -0.000002030376
  27      0.000001755649
  28     -0.000001217592
  29      0.000001378932
  30     -0.000003958869
  31      0.000009329266
  32     -0.000005652714
  33     -0.000035845060
  34      0.000023869851
  35     -0.000000051241
  36     -0.000000100915
  37      0.000000087423
  38      0.000000030997
  39      0.000000062966
  40      0.000000023997
  41      0.000000232307
  42     -0.000000409717
  43      0.000000944401
  44      0.000047258913
  45     -0.000001685168
  46     -0.000002372233
  47      0.000001678570
  48      0.000002021551
  49     -0.000013510324
  50      0.000008597505
  51     -0.000001121401
  52     -0.000000218777
  53      0.000000447046
  54     -0.000000943710
  55      0.000002179773
  56     -0.000000323077
  57      0.000001009017
  58      0.000045757806
  59      0.000000875602
  60     -0.000002581499
  61      0.000002479513
  62     -0.000006781967
  63     -0.000012129269
  64      0.000008268683
  65     -0.000000903462
  66      0.000000364217
  67     -0.000000107550
  68     -0.000000922026
  69      0.000002365376
  70     -0.000003202321
  71     -0.000010287794
  72     -0.000000418427
  73      0.000000956542
  74      0.000000953861
  75     -0.000003263958
  76     -0.000010440134
  77     -0.000000237286
  78     -0.000000475363
  79     -0.000001241481
  80     -0.000003027751
  81     -0.000010264673
  82      0.000000602560
  83     -0.000000323738
  84     -0.000000821199
  85     -0.000003320666
  86     -0.000010218599
  87      0.000000624757
  88      0.000001103003
  89      0.000001262441
 Ene=  -0.30448557026695E+03
 Spin= Alpha
 Occup=    0.000000
   1      0.000006817817
   2      0.000000347780
   3      0.000000243221
   4     -0.000000026212
   5     -0.000000081674
   6      0.000000012788
   7     -0.000000005813
   8      0.000000002747
   9     -0.000000001113
  10      0.000000009539
  11     -0.000000024413
  12      0.000000000004
  13     -0.000000025404
  14      0.000000022167
  15     -0.000000000060
  16      0.000000022582
  17     -0.000000015723
  18      0.000000000105
  19     -0.000000009426
  20      0.000000006601
  21     -0.000000000093
  22      0.000000000178
  23     -0.000000004512
  24     -0.000000000183
  25     -0.000000000126
  26      0.000000000080
  27      0.000000000037
  28      0.000000002621
  29     -0.000000000548
  30      0.000000000075
  31     -0.000000000218
  32      0.000000003551
  33     -0.000000000929
  34     -0.000000000398
  35     -0.000000007201
  36      0.000000004399
  37     -0.000000000459
  38      0.000000006496
  39     -0.000000001449
  40     -0.000000001068
  41      0.000000000378
  42     -0.000000000118
  43      0.000000000558
  44     -0.000000006577
  45      0.000000000601
  46      0.000000000097
  47     -0.000000000264
  48      0.000000001628
  49      0.000000001644
  50     -0.000000001529
  51      0.000000000418
  52      0.000000000042
  53     -0.000000000284
  54     -0.000000000364
  55      0.000000000473
  56      0.000000000189
  57     -0.000000000312
  58      0.000000004850
  59      0.000000000492
  60      0.000000000030
  61      0.000000000051
  62      0.000000000774
  63     -0.000000001425
  64      0.000000001011
  65     -0.000000000090
  66      0.000000000618
  67     -0.000000000546
  68      0.000000000163
  69      0.000000000046
  70      0.000000000315
  71      0.000000000726
  72     -0.000000000146
  73     -0.000000000071
  74      0.000000000181
  75     -0.000000000007
  76      0.000000000359
  77      0.000000000132
  78     -0.000000000167
  79     -0.000000000189
  80     -0.000000000029
  81     -0.000000000095
  82      0.000000000196
  83      0.000000000128
  84      0.000000000128
  85     -0.000000000303
  86      0.000000000020
  87     -0.000000000017
  88      0.000000000004
  89     -0.000000000120
 Ene=  -0.36676541461954E+02
 Spin= Alpha
 Occup=    1.000000
   1      0.101429371282
   2      0.038891556299
   3     -0.224116963777
   4     -0.141348795002
   5      0.016627059822
   6     -0.005141426398
   7      0.000621850849
   8     -0.000103023725
   9      0.000049229193
  10      0.000014513543
  11      0.000063850255
  12     -0.000058649040
  13     -0.000000265797
  14     -0.000000968758
  15      0.000003143978
  16      0.000000736182
  17      0.000004004753
  18     -0.000003757746
  19      0.000000447596
  20      0.000002537588
  21     -0.000001521556
  22     -0.000005598348
  23     -0.000002868540
  24      0.000007399899
  25     -0.000023482878
  26      0.000056615331
  27     -0.000000404944
  28      0.000001451604
  29     -0.000002739495
  30      0.000008459332
  31     -0.000020734424
  32     -0.000000598945
  33     -0.000001963452
  34      0.000001331902
  35      0.000000139971
  36      0.000000381305
  37     -0.000000087975
  38     -0.000000097196
  39     -0.000000098440
  40      0.000000266633
  41     -0.000000382413
  42      0.000000478103
  43      0.000002318751
  44      0.000017486991
  45      0.000000642729
  46      0.000001364040
  47     -0.000000953701
  48      0.000008054690
  49     -0.000001007476
  50      0.000000492169
  51     -0.000000088646
  52     -0.000003652299
  53      0.000002927922
  54     -0.000002093332
  55      0.000005574934
  56      0.000000362298
  57      0.000002620546
  58      0.000015581070
  59     -0.000000194174
  60      0.000001399898
  61     -0.000001939657
  62     -0.000008860298
  63      0.000001657765
  64     -0.000000311669
  65      0.000001659561
  66      0.000002500953
  67     -0.000001030703
  68     -0.000003185019
  69      0.000006328909
  70     -0.000001954320
  71     -0.000009213585
  72     -0.000000619098
  73      0.000000777025
  74      0.000001399106
  75     -0.000001803148
  76     -0.000008730467
  77     -0.000001287781
  78     -0.000000932897
  79     -0.000001142495
  80     -0.000002107205
  81     -0.000009142472
  82      0.000000464792
  83     -0.000001545184
  84     -0.000001663241
  85     -0.000001689115
  86     -0.000008870768
  87      0.000000912267
  88      0.000000089951
  89      0.000001233862
 Ene=  -0.36676541461954E+02
 Spin= Alpha
 Occup=    0.000000
   1      0.000028161434
   2      0.000010798064
   3     -0.000062225431
   4     -0.000039245278
   5      0.000004617069
   6     -0.000001427221
   7      0.000000172724
   8     -0.000000032355
   9      0.000000015573
  10     -0.000011875264
  11      0.000002422478
  12     -0.000000013610
  13      0.000001814930
  14     -0.000000358441
  15      0.000000000761
  16     -0.000001226251
  17      0.000000243295
  18     -0.000000001478
  19      0.000000509272
  20     -0.000000100094
  21      0.000000000262
  22     -0.000000006662
  23      0.000000004178
  24      0.000000030532
  25     -0.000000003855
  26      0.000000011791
  27      0.000000002629
  28     -0.000000002618
  29     -0.000000014966
  30      0.000000000721
  31     -0.000000002860
  32     -0.000000116447
  33      0.000000020850
  34      0.000000000942
  35      0.000000041185
  36     -0.000000024651
  37      0.000000002389
  38     -0.000000035510
  39      0.000000007382
  40      0.000000005929
  41     -0.000000002098
  42      0.000000004365
  43      0.000000008595
  44     -0.000000073245
  45     -0.000000001586
  46      0.000000004696
  47     -0.000000002556
  48      0.000000058081
  49     -0.000000012327
  50      0.000000011003
  51      0.000000000421
  52     -0.000000010031
  53      0.000000008315
  54     -0.000000002565
  55      0.000000007740
  56     -0.000000004372
  57     -0.000000008287
  58      0.000000084963
  59     -0.000000002965
  60     -0.000000004329
  61      0.000000002495
  62      0.000000056850
  63     -0.000000005125
  64     -0.000000007393
  65     -0.000000005196
  66     -0.000000007078
  67      0.000000005496
  68      0.000000003906
  69     -0.000000008628
  70     -0.000000004263
  71      0.000000001247
  72     -0.000000003249
  73      0.000000000342
  74      0.000000002191
  75     -0.000000001039
  76      0.000000007366
  77     -0.000000005755
  78     -0.000000002327
  79      0.000000000061
  80      0.000000000508
  81     -0.000000011528
  82     -0.000000004554
  83      0.000000002978
  84     -0.000000000439
  85      0.000000003492
  86     -0.000000009001
  87     -0.000000003233
  88      0.000000001371
  89     -0.000000002076
 Ene=  -0.32108013661703E+02
 Spin= Alpha
 Occup=    0.633877
   1      0.000034600097
   2      0.000012988477
   3      0.000045539660
   4      0.000093985420
   5     -0.000227051238
   6     -0.000124541510
   7      0.000112375350
   8      0.000083980527
   9     -0.000384994685
  10      0.180405796015
  11     -0.548101581952
  12     -0.047267118837
  13     -0.003117443484
  14      0.009521034954
  15      0.000942100856
  16      0.005056663037
  17     -0.015535244194
  18     -0.001288267522
  19     -0.001806005652
  20      0.005702533601
  21      0.000345725441
  22     -0.000003938733
  23      0.000007271176
  24     -0.000001096360
  25      0.000014440188
  26      0.000009385194
  27     -0.000028494498
  28     -0.000006900030
  29      0.000001067108
  30     -0.000007882810
  31     -0.000043425134
  32      0.000381519604
  33     -0.001454934109
  34      0.000013604663
  35      0.000017236061
  36      0.000008429752
  37     -0.000016794967
  38     -0.000008200703
  39      0.000010965678
  40     -0.000018850433
  41      0.000005825783
  42      0.000011849087
  43      0.000082171319
  44      0.000479801536
  45      0.000015439025
  46      0.000025810297
  47     -0.000028158863
  48     -0.000238597649
  49      0.000036901390
  50      0.000029408477
  51      0.000003113754
  52     -0.000069001315
  53      0.000054866787
  54     -0.000033286057
  55      0.000114554128
  56      0.000025021175
  57      0.000146101643
  58     -0.000411246792
  59     -0.000013067365
  60      0.000082922265
  61     -0.000062400512
  62     -0.000364619280
  63      0.000013638647
  64      0.000039936047
  65      0.000089482741
  66      0.000098165419
  67     -0.000055210533
  68     -0.000093278806
  69      0.000220061794
  70     -0.000053242997
  71      0.000178622396
  72     -0.000013433107
  73     -0.000025546528
  74      0.000018806331
  75     -0.000023210717
  76      0.000025551774
  77      0.000014736187
  78      0.000010603054
  79     -0.000026897740
  80     -0.000044694987
  81      0.000100286127
  82      0.000027566919
  83     -0.000016277797
  84     -0.000031397289
  85     -0.000071093686
  86      0.000267381126
  87      0.000045973158
  88     -0.000041555626
  89      0.000046760082
 Ene=  -0.32108013661701E+02
 Spin= Alpha
 Occup=    0.366123
   1     -0.000021981603
   2     -0.000007824175
   3     -0.000021983304
   4     -0.000048864524
   5      0.000127764659
   6      0.000068912324
   7     -0.000062518663
   8     -0.000041006926
   9      0.000213544932
  10      0.504284490322
  11      0.190985373766
  12     -0.003244952943
  13     -0.008719517696
  14     -0.003314658367
  15      0.000001547918
  16      0.014187357745
  17      0.005434006414
  18     -0.000117402344
  19     -0.005122804128
  20     -0.002019651157
  21      0.000103157501
  22      0.000004512587
  23      0.000004248492
  24     -0.000004490509
  25     -0.000007430342
  26     -0.000003015730
  27      0.000007722730
  28     -0.000021902128
  29      0.000015953881
  30      0.000005570004
  31      0.000018308203
  32      0.001176123518
  33      0.000550434484
  34     -0.000078158109
  35      0.000017007944
  36     -0.000017222241
  37      0.000012505946
  38      0.000000037528
  39      0.000006599480
  40      0.000008264584
  41     -0.000005307925
  42     -0.000021729096
  43     -0.000120448267
  44      0.000765438733
  45     -0.000034247392
  46     -0.000070970460
  47      0.000053620496
  48     -0.000562617349
  49      0.000130822459
  50     -0.000052907779
  51     -0.000019205589
  52      0.000138872048
  53     -0.000101617778
  54      0.000049127998
  55     -0.000151802599
  56      0.000001425348
  57     -0.000006690223
  58     -0.000811418593
  59     -0.000000593504
  60      0.000015656605
  61     -0.000006333708
  62     -0.000507216589
  63      0.000050143618
  64     -0.000004226137
  65      0.000014420319
  66      0.000009642730
  67     -0.000009912558
  68      0.000000434651
  69     -0.000013070918
  70      0.000052135772
  71     -0.000183385006
  72      0.000055846767
  73      0.000009840888
  74     -0.000038548824
  75      0.000039967771
  76     -0.000118959499
  77      0.000047140291
  78      0.000019671569
  79      0.000018242802
  80      0.000001551385
  81      0.000025926586
  82      0.000028166431
  83     -0.000024830197
  84      0.000009089036
  85      0.000014145627
  86     -0.000039057577
  87      0.000023121376
  88      0.000004035521
  89      0.000007088684
 Ene=  -0.31453130476265E+02
 Spin= Alpha
 Occup=    0.417905
   1     -0.000029131087
   2     -0.000011386809
   3     -0.000007515697
   4     -0.000018430843
   5      0.000123449786
   6      0.000045407660
   7     -0.000045436346
   8     -0.000045748270
   9      0.000170851787
  10      0.027169890932
  11      0.367537436511
  12     -0.134753440294
  13      0.000142466280
  14      0.001860875628
  15     -0.000755842384
  16      0.000452159500
  17      0.006096323040
  18     -0.002214945280
  19     -0.000145536875
  20     -0.001896965083
  21      0.000716096404
  22      0.000007150564
  23     -0.000003016474
  24      0.000000245831
  25     -0.000003788867
  26     -0.000001651062
  27      0.000011573794
  28     -0.000002238412
  29      0.000002099629
  30     -0.000003582036
  31      0.000018228911
  32      0.000042718705
  33      0.000477879465
  34     -0.000195906161
  35     -0.000008287112
  36     -0.000016314753
  37      0.000014756272
  38      0.000004789466
  39     -0.000005853766
  40      0.000004249228
  41     -0.000007586114
  42     -0.000008460694
  43     -0.000046112956
  44     -0.000037420916
  45     -0.000012270239
  46     -0.000024552773
  47      0.000018434952
  48     -0.000007507970
  49      0.000010470824
  50     -0.000011763076
  51     -0.000005001066
  52      0.000048270108
  53     -0.000036742930
  54      0.000022322423
  55     -0.000065254972
  56     -0.000009378698
  57     -0.000049582795
  58      0.000015849142
  59      0.000004561699
  60     -0.000030956376
  61      0.000020990913
  62      0.000044375083
  63      0.000005112009
  64     -0.000008059794
  65     -0.000030366438
  66     -0.000032853761
  67      0.000018443150
  68      0.000035901873
  69     -0.000080044596
  70      0.000022230238
  71     -0.000070816774
  72      0.000009511189
  73      0.000003143128
  74     -0.000009997452
  75      0.000018138194
  76     -0.000051431158
  77      0.000006652283
  78      0.000004746280
  79      0.000005749734
  80      0.000019422967
  81     -0.000054067494
  82     -0.000007145703
  83      0.000007955386
  84      0.000005834445
  85      0.000022461093
  86     -0.000077505065
  87     -0.000010311865
  88      0.000006765715
  89     -0.000012168656
 Ene=  -0.31453130476263E+02
 Spin= Alpha
 Occup=    0.582095
   1      0.000001607590
   2      0.000000254268
   3     -0.000001092389
   4     -0.000001628537
   5     -0.000001731741
   6      0.000000271328
   7     -0.000000379868
   8     -0.000002847146
   9      0.000002534538
  10     -0.503643124032
  11      0.080394699411
  12     -0.005668750092
  13     -0.002495634269
  14      0.000397429743
  15     -0.000031248994
  16     -0.008305794619
  17      0.001327048906
  18     -0.000092774370
  19      0.002510742528
  20     -0.000401867928
  21      0.000028712903
  22     -0.000001264920
  23     -0.000005043493
  24      0.000003977176
  25      0.000000566558
  26     -0.000000914486
  27      0.000003675947
  28      0.000011802490
  29     -0.000008300415
  30     -0.000001885483
  31      0.000002202224
  32     -0.000545585338
  33      0.000087005581
  34     -0.000005890972
  35     -0.000021235970
  36      0.000008761606
  37     -0.000002820038
  38      0.000002063387
  39     -0.000008390735
  40      0.000000112230
  41      0.000001620064
  42      0.000006347771
  43      0.000027758461
  44     -0.000409575300
  45      0.000010362272
  46      0.000024259654
  47     -0.000016669523
  48      0.000272428755
  49     -0.000055833635
  50      0.000013546140
  51      0.000008699799
  52     -0.000039389572
  53      0.000027670213
  54     -0.000011917754
  55      0.000035302780
  56     -0.000006699192
  57     -0.000028835216
  58      0.000412228723
  59      0.000002785946
  60     -0.000027460704
  61      0.000017760551
  62      0.000277960880
  63     -0.000024433386
  64     -0.000004712613
  65     -0.000027431625
  66     -0.000024904898
  67      0.000015971511
  68      0.000021612204
  69     -0.000045077075
  70     -0.000008647391
  71      0.000036418508
  72     -0.000019665574
  73      0.000000130116
  74      0.000011651365
  75     -0.000008998294
  76      0.000037141717
  77     -0.000021031147
  78     -0.000009442397
  79     -0.000002117378
  80      0.000009346203
  81     -0.000037170783
  82     -0.000017453821
  83      0.000014861955
  84      0.000002045783
  85      0.000008916810
  86     -0.000040537539
  87     -0.000018837070
  88      0.000006383467
  89     -0.000012883655
 Ene=  -0.31439930192930E+02
 Spin= Alpha
 Occup=    0.914669
   1      0.000021044537
   2      0.000007916436
   3      0.000004860624
   4      0.000012637461
   5     -0.000087293352
   6     -0.000028911477
   7      0.000029919623
   8      0.000031595221
   9     -0.000115677421
  10     -0.009249449410
  11     -0.598819442737
  12     -0.420379332409
  13     -0.000038515945
  14     -0.003156013114
  15     -0.002012976867
  16     -0.000159347201
  17     -0.009788816541
  18     -0.006910106263
  19      0.000051832061
  20      0.002967093780
  21      0.002022185063
  22     -0.000004437325
  23      0.000006148672
  24      0.000001538601
  25      0.000025930193
  26      0.000011022895
  27     -0.000008631886
  28     -0.000002832052
  29     -0.000002361094
  30     -0.000018258909
  31     -0.000021124721
  32     -0.000020542493
  33     -0.000698999152
  34     -0.000429717178
  35      0.000005875734
  36      0.000003217478
  37     -0.000021226077
  38     -0.000009022092
  39      0.000008008337
  40     -0.000042429322
  41      0.000012727485
  42      0.000005149362
  43      0.000027983225
  44      0.000068411092
  45      0.000006815075
  46      0.000010297810
  47     -0.000016949100
  48     -0.000021392329
  49      0.000010664152
  50      0.000024813534
  51      0.000002651334
  52     -0.000027466008
  53      0.000022640203
  54     -0.000005497773
  55      0.000044152468
  56      0.000007059283
  57      0.000036715934
  58     -0.000056896554
  59     -0.000003774678
  60      0.000019812101
  61     -0.000022124898
  62     -0.000056584689
  63      0.000010170829
  64      0.000022015972
  65      0.000023485100
  66      0.000025771077
  67     -0.000013500528
  68     -0.000017313046
  69      0.000062078599
  70     -0.000026786099
  71      0.000112434873
  72     -0.000017706084
  73     -0.000025691474
  74      0.000014779193
  75      0.000001137928
  76     -0.000037829370
  77      0.000010192474
  78      0.000014618535
  79     -0.000023126131
  80     -0.000001322267
  81     -0.000028583553
  82      0.000000097989
  83      0.000012995464
  84     -0.000023656585
  85     -0.000027811680
  86      0.000127512594
  87      0.000014868177
  88     -0.000032141367
  89      0.000019247997
 Ene=  -0.31439930192928E+02
 Spin= Alpha
 Occup=    0.085331
   1     -0.000001544837
   2     -0.000000420098
   3      0.000000342466
   4      0.000000348744
   5      0.000004034101
   6      0.000001021121
   7     -0.000000967081
   8      0.000000182474
   9      0.000003105974
  10      0.247945325718
  11     -0.029383670224
  12      0.000139281407
  13      0.001343861974
  14     -0.000158192284
  15     -0.000000457755
  16      0.004029162548
  17     -0.000477143662
  18      0.000002225290
  19     -0.001209768103
  20      0.000142177126
  21      0.000000181554
  22      0.000000811939
  23      0.000002622117
  24     -0.000001582275
  25     -0.000000422305
  26      0.000000335561
  27     -0.000001484929
  28     -0.000005916343
  29      0.000003854806
  30      0.000000862264
  31     -0.000000542144
  32      0.000262698799
  33     -0.000029013819
  34     -0.000001190173
  35      0.000010432441
  36     -0.000004906975
  37      0.000001679757
  38     -0.000001180824
  39      0.000003924975
  40      0.000000222334
  41     -0.000000967945
  42     -0.000003229242
  43     -0.000014406183
  44      0.000195479188
  45     -0.000005294057
  46     -0.000012309602
  47      0.000008502074
  48     -0.000130791032
  49      0.000026985832
  50     -0.000006716527
  51     -0.000004330570
  52      0.000020123793
  53     -0.000014209620
  54      0.000006258834
  55     -0.000018596003
  56      0.000002946030
  57      0.000012500330
  58     -0.000197264529
  59     -0.000001212598
  60      0.000012449108
  61     -0.000008003848
  62     -0.000132115351
  63      0.000011835003
  64      0.000001937996
  65      0.000012418500
  66      0.000011106712
  67     -0.000007197425
  68     -0.000009466017
  69      0.000019590036
  70      0.000004702221
  71     -0.000019398558
  72      0.000009692292
  73      0.000000068720
  74     -0.000005861759
  75      0.000004741331
  76     -0.000018965992
  77      0.000010233519
  78      0.000004613655
  79      0.000001184680
  80     -0.000003999989
  81      0.000016542887
  82      0.000008200170
  83     -0.000006952648
  84     -0.000000791303
  85     -0.000003663320
  86      0.000017385221
  87      0.000008756703
  88     -0.000002854924
  89      0.000005858527
 Ene=  -0.10227392197429E+02
 Spin= Alpha
 Occup=    0.999995
   1      0.000000021939
   2     -0.000001367002
   3      0.000097743419
   4      0.000143921969
   5     -0.000201874304
   6      0.000088036044
   7     -0.000596672175
   8     -0.009537190003
   9      0.000907053138
  10     -0.000018584064
  11     -0.000050541663
  12      0.000034667523
  13      0.000127742243
  14      0.000333977681
  15     -0.000228983765
  16     -0.000333780231
  17     -0.000836832376
  18      0.000576775951
  19      0.000319718899
  20      0.000633076076
  21     -0.000442186712
  22      0.000109254788
  23     -0.000096292141
  24      0.000072762674
  25     -0.000114448298
  26      0.000284868686
  27     -0.000483824697
  28      0.000380626266
  29     -0.000284386548
  30      0.000480358052
  31     -0.001187584277
  32     -0.001611121078
  33     -0.003573586250
  34      0.002477219881
  35     -0.000036527717
  36     -0.000009099334
  37      0.000004443304
  38      0.000018746985
  39     -0.000066837686
  40     -0.000027136899
  41     -0.000123147521
  42     -0.744659271008
  43     -0.040521293675
  44      0.033670949513
  45     -0.001189388755
  46      0.000006267726
  47      0.000094286341
  48     -0.002834349000
  49     -0.001992904965
  50      0.001515004983
  51      0.000031498004
  52     -0.000620954618
  53      0.000278390445
  54      0.000645411743
  55     -0.001376947057
  56     -0.358696046051
  57     -0.018320161824
  58      0.008663796158
  59      0.001898322248
  60     -0.000098915467
  61     -0.000092546647
  62     -0.001852122449
  63     -0.002087281925
  64      0.001552929820
  65      0.001340428956
  66      0.000032123491
  67     -0.000254367143
  68      0.000207852633
  69     -0.000492906940
  70      0.002918100982
  71     -0.006572620512
  72     -0.001006180088
  73     -0.001484199902
  74     -0.001733085313
  75      0.002911292186
  76     -0.006588295764
  77     -0.000688590844
  78      0.001064365192
  79      0.002146882528
  80      0.001438838161
  81     -0.002978376197
  82      0.000256096529
  83      0.000544735562
  84      0.000896060362
  85      0.001424027457
  86     -0.003005125717
  87      0.000107575126
  88     -0.000612055396
  89     -0.000881554645
 Ene=  -0.10227392197429E+02
 Spin= Alpha
 Occup=    0.000005
   1     -0.000000001685
   2     -0.000000002872
   3      0.000000157551
   4      0.000000220845
   5     -0.000000311285
   6      0.000000141084
   7     -0.000000949535
   8     -0.000015100292
   9      0.000001425401
  10     -0.000000084495
  11     -0.000000030850
  12      0.000000024451
  13     -0.000000343840
  14      0.000000676055
  15     -0.000000340672
  16     -0.000001083616
  17     -0.000001275611
  18      0.000000908889
  19      0.000001129047
  20      0.000000913622
  21     -0.000000676611
  22      0.000000169291
  23     -0.000000221566
  24      0.000000144913
  25     -0.000000179686
  26      0.000000457412
  27     -0.000000632048
  28      0.000001095663
  29     -0.000000781187
  30      0.000000691528
  31     -0.000001823758