[Molden Format]
[Title]
generated by TRESC, real part1 of MOs of job Ni0-C2H4
 
[Atoms] AU
Ni   1  28    2.0327243480    6.6651129323   -0.4637853482
 C   2   6    4.4866582262    4.9116344944    1.3008835560
 C   3   6    4.8771137450    4.8741236186   -1.3947805326
 H   4   1    5.7310700770    6.0706468704    2.4997637439
 H   5   1    3.8369470533    3.1858198160    2.2645095603
 H   6   1    4.5308414173    3.1179949920   -2.4558991994
 H   7   1    6.4130479072    6.0088908466   -2.2212746715
[GTO]
  1 0
 s  6 1.0
    71074.8032110000        0.0049184150
    10672.0209410000        0.0200173975
     2428.1389007000        0.0784715325
      685.5359514800        0.2482002663
      223.1007286300        0.4665280195
       76.8420140400        0.3374151926
 s  1 1.0
      148.7112201600        1.0000000000
 s  1 1.0
       17.4591549900        1.0000000000
 s  1 1.0
        7.1625280700        1.0000000000
 s  1 1.0
       12.5561371300        1.0000000000
 s  1 1.0
        2.0735740500        1.0000000000
 s  1 1.0
        0.8538264100        1.0000000000
 s  1 1.0
        0.1053676600        1.0000000000
 s  1 1.0
        0.0381340900        1.0000000000
 p  5 1.0
      916.7360866200        0.0107030171
      216.0613991300        0.0711467350
       68.3839148200        0.2646675976
       24.5938439500        0.5093159720
        9.1392960200        0.3283291628
 p  1 1.0
        4.7193371700        1.0000000000
 p  1 1.0
        1.8161849200        1.0000000000
 p  1 1.0
        0.6784075100        1.0000000000
 d  4 1.0
       47.0938321100        0.0346401353
       13.1464639700        0.1833736831
        4.4170548900        0.4455621030
        1.4771565100        0.5627236040
 d  1 1.0
        0.4373592200        1.0000000000
 p  1 1.0
        0.1465880000        1.0000000000
 f  1 1.0
        2.1740000000        1.0000000000
 
  2 0
 s  5 1.0
     1238.4016938000        0.0059599745
      186.2900499200        0.0422621111
       42.2511763500        0.1866575214
       11.6765579300        0.4675815865
        3.5930506500        0.4422897287
 s  1 1.0
        0.4024514700        1.0000000000
 s  1 1.0
        0.1309018300        1.0000000000
 p  3 1.0
        9.4680970600        0.0570294585
        2.0103545100        0.3130471495
        0.5477100500        0.7605135301
 p  1 1.0
        0.1526861400        1.0000000000
 d  1 1.0
        0.8000000000        1.0000000000
 
  3 0
 s  5 1.0
     1238.4016938000        0.0059599745
      186.2900499200        0.0422621111
       42.2511763500        0.1866575214
       11.6765579300        0.4675815865
        3.5930506500        0.4422897287
 s  1 1.0
        0.4024514700        1.0000000000
 s  1 1.0
        0.1309018300        1.0000000000
 p  3 1.0
        9.4680970600        0.0570294585
        2.0103545100        0.3130471495
        0.5477100500        0.7605135301
 p  1 1.0
        0.1526861400        1.0000000000
 d  1 1.0
        0.8000000000        1.0000000000
 
  4 0
 s  3 1.0
       13.0107010000        0.0391282527
        1.9622572000        0.2855840539
        0.4445379600        0.7689908602
 s  1 1.0
        0.1219496200        1.0000000000
 p  1 1.0
        0.8000000000        1.0000000000
 
  5 0
 s  3 1.0
       13.0107010000        0.0391282527
        1.9622572000        0.2855840539
        0.4445379600        0.7689908602
 s  1 1.0
        0.1219496200        1.0000000000
 p  1 1.0
        0.8000000000        1.0000000000
 
  6 0
 s  3 1.0
       13.0107010000        0.0391282527
        1.9622572000        0.2855840539
        0.4445379600        0.7689908602
 s  1 1.0
        0.1219496200        1.0000000000
 p  1 1.0
        0.8000000000        1.0000000000
 
  7 0
 s  3 1.0
       13.0107010000        0.0391282527
        1.9622572000        0.2855840539
        0.4445379600        0.7689908602
 s  1 1.0
        0.1219496200        1.0000000000
 p  1 1.0
        0.8000000000        1.0000000000
 
[5D]
[7F]
[9G]
[MO]
 Ene=  -0.30448557006677E+03
 Spin= Alpha
 Occup=    1.000000
   1      0.213954165269
   2      0.010914141621
   3      0.007629984614
   4     -0.000826464847
   5     -0.002557774605
   6      0.000403439047
   7     -0.000181921238
   8      0.000062323800
   9     -0.000020734693
  10     -0.000001481245
  11      0.000001010944
  12     -0.000000333977
  13      0.000000488896
  14     -0.000000165464
  15      0.000000261700
  16      0.000001171251
  17     -0.000001074640
  18      0.000000062286
  19     -0.000002999556
  20      0.000002459484
  21     -0.000000426184
  22      0.000000174531
  23     -0.000000187535
  24      0.000000152209
  25     -0.000000295086
  26      0.000000848926
  27     -0.000000736972
  28      0.000000528939
  29     -0.000000584564
  30      0.000001637456
  31     -0.000003959431
  32      0.000015121887
  33     -0.000010250492
  34      0.000002406341
  35      0.000000021567
  36      0.000000046621
  37     -0.000000032475
  38     -0.000000013647
  39      0.000000005675
  40      0.000000002045
  41     -0.000000101337
  42      0.000000107634
  43     -0.000000311760
  44     -0.000020142386
  45      0.000001023071
  46     -0.000000724749
  47      0.000000642906
  48      0.000005764584
  49     -0.000003749569
  50     -0.000000791026
  51      0.000000505212
  52      0.000000074299
  53     -0.000000202534
  54      0.000000360538
  55     -0.000000917321
  56      0.000000143019
  57     -0.000000429382
  58     -0.000019477489
  59      0.000001153256
  60     -0.000000724150
  61     -0.000000606161
  62      0.000005168039
  63     -0.000003513416
  64      0.000003020900
  65      0.000000326659
  66     -0.000000174926
  67     -0.000000034559
  68      0.000000411029
  69     -0.000000955030
  70      0.000001365247
  71      0.000004396787
  72     -0.000000419502
  73     -0.000000396843
  74      0.000000170167
  75      0.000001348013
  76      0.000004358902
  77      0.000000051640
  78      0.000000503870
  79      0.000000253853
  80      0.000001343883
  81      0.000004494507
  82      0.000000257224
  83      0.000000598234
  84     -0.000000304059
  85      0.000001331284
  86      0.000004340631
  87     -0.000000303405
  88     -0.000000512301
  89     -0.000000364781
 Ene=  -0.30448557006677E+03
 Spin= Alpha
 Occup=    0.000000
   1     -0.000005760129
   2     -0.000000293834
   3     -0.000000205323
   4      0.000000022330
   5      0.000000068696
   6     -0.000000010914
   7      0.000000005004
   8     -0.000000002420
   9      0.000000000774
  10      0.000000009333
  11      0.000000000014
  12      0.000000003600
  13     -0.000000009928
  14      0.000000000023
  15      0.000000015118
  16      0.000000007539
  17     -0.000000000014
  18     -0.000000015761
  19     -0.000000003102
  20     -0.000000000028
  21      0.000000006567
  22     -0.000000000177
  23      0.000000004650
  24      0.000000000171
  25      0.000000000135
  26     -0.000000000115
  27     -0.000000000058
  28     -0.000000002689
  29      0.000000000562
  30     -0.000000000069
  31      0.000000000190
  32      0.000000000087
  33      0.000000000453
  34     -0.000000002936
  35      0.000000007207
  36     -0.000000004393
  37      0.000000000469
  38     -0.000000006499
  39      0.000000001445
  40      0.000000001067
  41     -0.000000000390
  42      0.000000000128
  43     -0.000000000545
  44      0.000000007183
  45     -0.000000000101
  46      0.000000000253
  47     -0.000000000592
  48     -0.000000001566
  49      0.000000001553
  50     -0.000000002019
  51     -0.000000000426
  52     -0.000000000050
  53      0.000000000292
  54      0.000000000355
  55     -0.000000000436
  56     -0.000000000168
  57      0.000000000434
  58     -0.000000005572
  59      0.000000000052
  60     -0.000000000110
  61     -0.000000000489
  62      0.000000001476
  63     -0.000000001025
  64     -0.000000001220
  65      0.000000000174
  66     -0.000000000541
  67      0.000000000501
  68     -0.000000000235
  69      0.000000000122
  70     -0.000000000338
  71     -0.000000000642
  72      0.000000000056
  73     -0.000000000185
  74      0.000000000157
  75      0.000000000004
  76     -0.000000000335
  77      0.000000000191
  78      0.000000000179
  79     -0.000000000109
  80     -0.000000000003
  81      0.000000000203
  82     -0.000000000156
  83     -0.000000000152
  84     -0.000000000161
  85      0.000000000264
  86      0.000000000198
  87     -0.000000000037
  88      0.000000000161
  89      0.000000000064
 Ene=  -0.36676537564109E+02
 Spin= Alpha
 Occup=    1.000000
   1      0.007813922577
   2      0.002996131282
   3     -0.017265532051
   4     -0.010889232484
   5      0.001280906725
   6     -0.000396098579
   7      0.000047925509
   8     -0.000007917148
   9      0.000003783859
  10     -0.000002711899
  11     -0.000014111016
  12      0.000000908901
  13      0.000000978593
  14      0.000001507809
  15      0.000000031232
  16     -0.000000367015
  17     -0.000001084034
  18      0.000000035544
  19      0.000000730260
  20      0.000000553419
  21      0.000000045134
  22     -0.000000425808
  23     -0.000000157780
  24      0.000000570592
  25     -0.000001113307
  26      0.000004645570
  27     -0.000000033190
  28      0.000000082208
  29     -0.000000205259
  30      0.000000341479
  31     -0.000001729066
  32     -0.000000257003
  33     -0.000000033403
  34     -0.000000052902
  35      0.000000013316
  36      0.000000127053
  37      0.000000131191
  38     -0.000000025510
  39     -0.000000063818
  40      0.000000334471
  41     -0.000000079830
  42      0.000000017541
  43      0.000000198525
  44      0.000001348784
  45      0.000000104027
  46     -0.000000077665
  47      0.000000032497
  48     -0.000000023938
  49      0.000000090713
  50      0.000000631796
  51     -0.000000002847
  52     -0.000000296370
  53      0.000000209868
  54     -0.000000220249
  55      0.000000410562
  56      0.000000030462
  57      0.000000202788
  58      0.000001178397
  59      0.000000119112
  60     -0.000000084771
  61     -0.000000068048
  62      0.000000212669
  63      0.000000089126
  64     -0.000000655080
  65      0.000000118490
  66      0.000000189261
  67     -0.000000092206
  68     -0.000000302896
  69      0.000000475702
  70     -0.000000162830
  71     -0.000000742674
  72      0.000000051614
  73      0.000000099472
  74     -0.000000044582
  75     -0.000000133814
  76     -0.000000647858
  77     -0.000000111028
  78     -0.000000100663
  79     -0.000000071809
  80     -0.000000127411
  81     -0.000000624301
  82     -0.000000104911
  83     -0.000000083426
  84      0.000000029648
  85     -0.000000169653
  86     -0.000000742229
  87      0.000000039669
  88      0.000000087976
  89      0.000000043888
 Ene=  -0.36676537564109E+02
 Spin= Alpha
 Occup=    0.000000
   1      0.000005966739
   2      0.000002287863
   3     -0.000013185529
   4     -0.000008317098
   5      0.000000981103
   6     -0.000000300875
   7      0.000000035550
   8     -0.000000010804
   9      0.000000008617
  10      0.000003280114
  11     -0.000000008247
  12     -0.000010335667
  13     -0.000000495397
  14      0.000000001313
  15      0.000001587954
  16      0.000000335103
  17     -0.000000002366
  18     -0.000001074156
  19     -0.000000140105
  20      0.000000002615
  21      0.000000446010
  22     -0.000000005427
  23      0.000000007764
  24      0.000000029674
  25      0.000000001562
  26     -0.000000000939
  27      0.000000002824
  28     -0.000000004406
  29     -0.000000014313
  30     -0.000000001204
  31      0.000000002039
  32      0.000000032000
  33     -0.000000000716
  34     -0.000000101891
  35      0.000000041246
  36     -0.000000024765
  37      0.000000002684
  38     -0.000000035552
  39      0.000000007502
  40      0.000000006097
  41     -0.000000002139
  42      0.000000003908
  43      0.000000006078
  44     -0.000000066054
  45      0.000000003526
  46     -0.000000001524
  47     -0.000000002232
  48     -0.000000010405
  49      0.000000010848
  50      0.000000048617
  51      0.000000000160
  52     -0.000000007082
  53      0.000000006144
  54     -0.000000001400
  55      0.000000004101
  56     -0.000000004471
  57     -0.000000009128
  58      0.000000069911
  59     -0.000000004260
  60      0.000000003096
  61     -0.000000002958
  62     -0.000000004885
  63     -0.000000008007
  64      0.000000052317
  65     -0.000000005584
  66     -0.000000007788
  67      0.000000005707
  68      0.000000004825
  69     -0.000000010651
  70     -0.000000003204
  71      0.000000000086
  72      0.000000000405
  73      0.000000001294
  74     -0.000000002247
  75      0.000000000036
  76      0.000000007725
  77     -0.000000001922
  78      0.000000000647
  79     -0.000000004865
  80      0.000000001079
  81     -0.000000009460
  82      0.000000003033
  83      0.000000000192
  84     -0.000000004332
  85      0.000000004242
  86     -0.000000007916
  87      0.000000001568
  88     -0.000000002258
  89     -0.000000003274
 Ene=  -0.32108013480356E+02
 Spin= Alpha
 Occup=    0.469900
   1     -0.000016915602
   2     -0.000006588681
   3     -0.000028692684
   4     -0.000054099376
   5      0.000124326378
   6      0.000067742500
   7     -0.000060944152
   8     -0.000048828214
   9      0.000209638180
  10      0.368966572625
  11      0.053973324796
  12     -0.432335707181
  13     -0.006413478225
  14     -0.001014198621
  15      0.007473655155
  16      0.010445393008
  17      0.001498593988
  18     -0.012146846100
  19     -0.003817782879
  20     -0.000470907657
  21      0.004368819476
  22      0.000000809737
  23     -0.000008827083
  24      0.000003216879
  25     -0.000009582173
  26     -0.000006651389
  27      0.000020087428
  28      0.000018232151
  29     -0.000009610827
  30      0.000004774638
  31      0.000027508434
  32      0.000952687215
  33      0.000059270297
  34     -0.000974776252
  35     -0.000024159135
  36      0.000002373569
  37      0.000007609893
  38      0.000007046116
  39     -0.000012884382
  40      0.000012370426
  41     -0.000002175545
  42      0.000001699065
  43     -0.000003086120
  44     -0.000833177688
  45      0.000017657490
  46     -0.000005233258
  47      0.000005672565
  48     -0.000104579409
  49      0.000003132099
  50      0.000515238321
  51      0.000008031335
  52     -0.000018181981
  53      0.000009630688
  54      0.000000783880
  55     -0.000013622110
  56     -0.000022142151
  57     -0.000120788067
  58      0.000800271918
  59     -0.000079134157
  60      0.000057081406
  61      0.000011257796
  62     -0.000039922746
  63     -0.000032483690
  64      0.000591710529
  65     -0.000084326398
  66     -0.000089057430
  67      0.000052498106
  68      0.000078887224
  69     -0.000180399817
  70      0.000017041987
  71     -0.000053851799
  72      0.000017494980
  73      0.000004956133
  74     -0.000018848357
  75     -0.000002997602
  76      0.000047470054
  77     -0.000020890409
  78      0.000013800681
  79     -0.000039344188
  80      0.000036581465
  81     -0.000096181310
  82      0.000026679745
  83      0.000022792608
  84     -0.000038704998
  85      0.000053299565
  86     -0.000209740348
  87      0.000034547630
  88     -0.000044266634
  89     -0.000052412109
 Ene=  -0.32108013480355E+02
 Spin= Alpha
 Occup=    0.530100
   1     -0.000036140699
   2     -0.000013949312
   3     -0.000041462950
   4     -0.000093781117
   5      0.000228319751
   6      0.000127386718
   7     -0.000115694273
   8     -0.000081890606
   9      0.000397807783
  10      0.447708828342
  11     -0.006653283154
  12      0.345364057615
  13     -0.007768596963
  14      0.000010380846
  15     -0.005972158178
  16      0.012710276022
  17     -0.000235274312
  18      0.009726996573
  19     -0.004693437740
  20      0.000198877117
  21     -0.003523852552
  22      0.000006048722
  23      0.000000504301
  24     -0.000003262042
  25     -0.000012624536
  26     -0.000007050631
  27      0.000022705259
  28     -0.000016069614
  29      0.000013503215
  30      0.000006685468
  31      0.000038956155
  32      0.001233103654
  33     -0.000144721801
  34      0.000826914117
  35      0.000005517908
  36     -0.000020007538
  37      0.000019519714
  38      0.000004235377
  39      0.000000065394
  40      0.000015426508
  41     -0.000007414942
  42     -0.000025608642
  43     -0.000151209705
  44      0.000416465514
  45     -0.000077358099
  46      0.000061949974
  47     -0.000038912366
  48      0.000097003118
  49     -0.000060532799
  50     -0.000367580791
  51     -0.000018776349
  52      0.000160455106
  53     -0.000119744413
  54      0.000062450306
  55     -0.000196133687
  56     -0.000012375458
  57     -0.000085239843
  58     -0.000494558912
  59     -0.000031761281
  60      0.000027850514
  61      0.000006835384
  62      0.000038405147
  63     -0.000023314811
  64     -0.000250231086
  65     -0.000035848375
  66     -0.000044760083
  67      0.000021289812
  68      0.000052155948
  69     -0.000130904293
  70      0.000073496645
  71     -0.000250889488
  72      0.000019697088
  73     -0.000043262493
  74      0.000055048691
  75      0.000049502778
  76     -0.000127542500
  77      0.000013847651
  78      0.000028328890
  79      0.000035311750
  80      0.000027496106
  81     -0.000039939581
  82     -0.000010667142
  83      0.000022766860
  84      0.000009434989
  85      0.000049645955
  86     -0.000171238162
  87      0.000022937079
  88     -0.000017867007
  89     -0.000003749676
 Ene=  -0.31453130949826E+02
 Spin= Alpha
 Occup=    0.518718
   1      0.000031068757
   2      0.000012361018
   3      0.000005612203
   4      0.000018580324
   5     -0.000128867364
   6     -0.000047824393
   7      0.000048182555
   8      0.000046802766
   9     -0.000181162130
  10     -0.306285682231
  11      0.175940486223
  12     -0.427729630546
  13     -0.001574746489
  14      0.000943091743
  15     -0.002129176807
  16     -0.005080638890
  17      0.002904737077
  18     -0.007057736777
  19      0.001595700319
  20     -0.000923818414
  21      0.002143050663
  22     -0.000008706592
  23     -0.000001102811
  24      0.000002620242
  25      0.000002589529
  26      0.000000239475
  27     -0.000009421494
  28      0.000012110878
  29     -0.000008658551
  30      0.000004037472
  31     -0.000017057307
  32     -0.000416590723
  33      0.000245466465
  34     -0.000477460616
  35     -0.000007855283
  36      0.000025236988
  37     -0.000016973774
  38     -0.000003099618
  39     -0.000000642330
  40     -0.000001696628
  41      0.000008893948
  42      0.000014133880
  43      0.000071575775
  44     -0.000286598830
  45      0.000045926828
  46     -0.000032633855
  47      0.000021445588
  48     -0.000056637226
  49      0.000022051401
  50      0.000225174277
  51      0.000012284750
  52     -0.000083227106
  53      0.000061400809
  54     -0.000034010158
  55      0.000097842439
  56      0.000004716511
  57      0.000030122078
  58      0.000311954367
  59      0.000011574286
  60     -0.000007933698
  61     -0.000002624751
  62     -0.000025743242
  63      0.000003721151
  64      0.000173952752
  65      0.000010673053
  66      0.000015282812
  67     -0.000007074384
  68     -0.000021891873
  69      0.000049620719
  70     -0.000029813869
  71      0.000100110113
  72     -0.000001591790
  73      0.000019351795
  74     -0.000024931262
  75     -0.000027505640
  76      0.000089641429
  77     -0.000013802282
  78     -0.000006465399
  79     -0.000024792889
  80     -0.000014258424
  81      0.000033250372
  82      0.000001908073
  83     -0.000003235306
  84     -0.000005777079
  85     -0.000016130410
  86      0.000045698690
  87     -0.000000247361
  88      0.000002081073
  89     -0.000004389895
 Ene=  -0.31453130949824E+02
 Spin= Alpha
 Occup=    0.481282
   1     -0.000023781689
   2     -0.000009530772
   3     -0.000007236216
   4     -0.000016359843
   5      0.000103617152
   6      0.000038600463
   7     -0.000038581905
   8     -0.000040687391
   9      0.000145594467
  10      0.354758392178
  11     -0.148064015507
  12     -0.391750500996
  13      0.001801293171
  14     -0.000793694657
  15     -0.001933582073
  16      0.005875689846
  17     -0.002443177434
  18     -0.006457494990
  19     -0.001823980170
  20      0.000775431509
  21      0.001944506187
  22      0.000005007478
  23     -0.000006488301
  24      0.000003530261
  25     -0.000001108349
  26     -0.000001457648
  27      0.000012695031
  28      0.000007596085
  29     -0.000005099965
  30     -0.000005955074
  31      0.000016500735
  32      0.000450602610
  33     -0.000203132498
  34     -0.000413321057
  35     -0.000024488354
  36     -0.000007078003
  37      0.000009281099
  38      0.000005566060
  39     -0.000011538892
  40      0.000001287963
  41     -0.000004631037
  42     -0.000001903333
  43     -0.000016041899
  44     -0.000366468952
  45     -0.000001011031
  46      0.000001483507
  47     -0.000001852024
  48     -0.000036153017
  49      0.000002302688
  50      0.000216664112
  51      0.000002924683
  52      0.000008388657
  53     -0.000008193683
  54      0.000009499040
  55     -0.000025718284
  56     -0.000013364214
  57     -0.000065213753
  58      0.000350341227
  59     -0.000048714370
  60      0.000031822795
  61      0.000006091338
  62     -0.000015007127
  63     -0.000009623217
  64      0.000264805853
  65     -0.000047945535
  66     -0.000047913947
  67      0.000028591321
  68      0.000048378936
  69     -0.000103928768
  70      0.000010848906
  71     -0.000025603550
  72      0.000001336496
  73      0.000001684889
  74     -0.000008897674
  75      0.000008617338
  76     -0.000016938798
  77     -0.000002726560
  78      0.000001932087
  79     -0.000010860349
  80      0.000024725429
  81     -0.000079947839
  82      0.000020030463
  83      0.000005408683
  84     -0.000020676111
  85      0.000025459058
  86     -0.000094037141
  87      0.000009299594
  88     -0.000020180554
  89     -0.000023715297
 Ene=  -0.31439930572987E+02
 Spin= Alpha
 Occup=    0.852903
   1     -0.000034585536
   2     -0.000013605356
   3     -0.000005192730
   4     -0.000020763988
   5      0.000142463358
   6      0.000048316726
   7     -0.000050613726
   8     -0.000051225154
   9      0.000195114655
  10      0.200885697250
  11     -0.498812993522
  12      0.041746867279
  13      0.001255306881
  14     -0.002669854764
  15      0.000246321678
  16      0.003247388504
  17     -0.008146810964
  18      0.000678692081
  19     -0.001055290396
  20      0.002484480881
  21     -0.000215246318
  22      0.000008954180
  23     -0.000000856004
  24      0.000001533255
  25      0.000011877505
  26      0.000005039970
  27      0.000012817717
  28     -0.000005704214
  29      0.000001792828
  30     -0.000018205617
  31      0.000014252858
  32      0.000296127243
  33     -0.000596625345
  34      0.000058186675
  35     -0.000010290875
  36     -0.000026382506
  37      0.000010126265
  38      0.000002415000
  39     -0.000004516052
  40     -0.000021514124
  41     -0.000004725898
  42     -0.000010277380
  43     -0.000054654091
  44     -0.000011115659
  45     -0.000032804551
  46      0.000018544418
  47     -0.000015272473
  48      0.000024057209
  49     -0.000002179571
  50     -0.000027946736
  51     -0.000006357291
  52      0.000058958604
  53     -0.000043714866
  54      0.000032006886
  55     -0.000075030579
  56     -0.000010413398
  57     -0.000053938244
  58     -0.000014941504
  59     -0.000036458487
  60      0.000019022449
  61      0.000004758270
  62      0.000014930319
  63      0.000002009455
  64      0.000031098874
  65     -0.000032709156
  66     -0.000035023101
  67      0.000020272746
  68      0.000045570951
  69     -0.000086162403
  70      0.000017643637
  71     -0.000038543759
  72     -0.000012006701
  73     -0.000006195533
  74      0.000003524672
  75      0.000029642646
  76     -0.000107253269
  77      0.000017297015
  78     -0.000006177392
  79      0.000017482764
  80      0.000029917193
  81     -0.000104826164
  82      0.000021159088
  83     -0.000006416633
  84     -0.000011179944
  85      0.000017206199
  86     -0.000038672997
  87     -0.000010560309
  88     -0.000006515554
  89     -0.000006414941
 Ene=  -0.31439930572985E+02
 Spin= Alpha
 Occup=    0.147097
   1     -0.000007354459
   2     -0.000002901731
   3     -0.000002158001
   4     -0.000005254375
   5      0.000032100513
   6      0.000010789312
   7     -0.000011259212
   8     -0.000012608105
   9      0.000043760298
  10      0.071394993465
  11     -0.140787551570
  12     -0.287329180656
  13      0.000431333402
  14     -0.000746432148
  15     -0.001551860185
  16      0.001153667188
  17     -0.002300029778
  18     -0.004669306450
  19     -0.000365230260
  20      0.000698277879
  21      0.001399102862
  22      0.000001242914
  23     -0.000003097166
  24      0.000002493497
  25      0.000004279350
  26      0.000001171164
  27      0.000004882366
  28      0.000005489196
  29     -0.000004323607
  30     -0.000006229157
  31      0.000003793712
  32      0.000092983431
  33     -0.000164813196
  34     -0.000301091108
  35     -0.000015045068
  36     -0.000000857661
  37      0.000000014397
  38      0.000001792967
  39     -0.000005677369
  40     -0.000006956047
  41      0.000000292856
  42      0.000001358489
  43      0.000003881410
  44     -0.000235937658
  45      0.000006545609
  46     -0.000005864641
  47      0.000002580435
  48     -0.000025887733
  49      0.000008187825
  50      0.000149324058
  51      0.000003623040
  52     -0.000009619168
  53      0.000006335475
  54      0.000000640941
  55      0.000004063057
  56     -0.000006054054
  57     -0.000028023804
  58      0.000231611942
  59     -0.000023889111
  60      0.000013965000
  61      0.000002602009
  62     -0.000010086123
  63     -0.000001232667
  64      0.000165295152
  65     -0.000022775235
  66     -0.000021742123
  67      0.000013543459
  68      0.000022728329
  69     -0.000044232079
  70     -0.000001788853
  71      0.000016311254
  72     -0.000003882125
  73      0.000005827299
  74     -0.000011208098
  75      0.000002025405
  76     -0.000006030697
  77     -0.000000661397
  78     -0.000003642369
  79     -0.000007481552
  80      0.000012532878
  81     -0.000047836070
  82      0.000014193471
  83     -0.000001349084
  84     -0.000012741078
  85      0.000008123356
  86     -0.000027498911
  87     -0.000000171252
  88     -0.000008209088
  89     -0.000011788222
 Ene=  -0.10227392508313E+02
 Spin= Alpha
 Occup=    0.999996
   1      0.000000144873
   2      0.000001162851
   3     -0.000092559000
   4     -0.000139862703
   5      0.000193926223
   6     -0.000086951797
   7      0.000582115026
   8      0.009300861057
   9     -0.000884550250
  10      0.000049268746
  11     -0.000033812487
  12      0.000018168966
  13     -0.000325617820
  14      0.000223383372
  15     -0.000124916256
  16      0.000816021250
  17     -0.000562511917
  18      0.000325897880
  19     -0.000617328145
  20      0.000431231213
  21     -0.000312182816
  22     -0.000106525366
  23      0.000093980417
  24     -0.000071009712
  25      0.000111584855
  26     -0.000277806299
  27      0.000471774044
  28     -0.000371447891
  29      0.000277493625
  30     -0.000468443911
  31      0.001158139916
  32      0.003484816703
  33     -0.002415824830
  34      0.001572788796
  35      0.000035664451
  36      0.000008848518
  37     -0.000004320383
  38     -0.000018305349
  39      0.000065242812
  40      0.000026468437
  41      0.000120085570
  42      0.726506977962
  43      0.039534433285
  44     -0.032855906799
  45     -0.000005802431
  46     -0.000092129190
  47      0.001159414070
  48      0.001943136361
  49     -0.001477452091
  50      0.002767179792
  51     -0.000029856790
  52      0.000605600783
  53     -0.000271580173
  54     -0.000629692211
  55      0.001343451396
  56      0.349519182979
  57      0.017849559139
  58     -0.008430165821
  59      0.000096279951
  60      0.000090409417
  61     -0.001851879784
  62      0.002035109733
  63     -0.001514394080
  64      0.001809248268
  65     -0.001307940264
  66     -0.000030807282
  67      0.000247779816
  68     -0.000202508836
  69      0.000480154426
  70     -0.002846942552
  71      0.006412526201
  72      0.001448134904
  73      0.001690795885
  74      0.000981822739
  75     -0.002840302842
  76      0.006427814490
  77     -0.001038358594
  78     -0.002094658377
  79      0.000671969033
  80     -0.001402079990
  81      0.002901879245
  82     -0.000531033039
  83     -0.000872897754
  84     -0.000249260321
  85     -0.001387637555
  86      0.002927966925
  87      0.000596062796
  88      0.000859085478
  89     -0.000104536881
 Ene=  -0.10227392508313E+02
 Spin= Alpha
 Occup=    0.000004
   1      0.000000002064
   2      0.000000001990
   3     -0.000000112710
   4     -0.000000162701
   5      0.000000224706
   6     -0.000000107834
   7      0.000000710390
   8      0.000011262199
   9     -0.000001057293
  10      0.000000000715
  11     -0.000000010817
  12      0.000000073139
  13     -0.000000748111
  14      0.000000249323
  15      0.000000284208
  16      0.000000991093
  17     -0.000000678146
  18      0.000000973040
  19     -0.000000696821
  20      0.000000500619
  21     -0.000001017005
  22     -0.000000144845
  23      0.000000186647
  24     -0.000000117013
  25      0.000000145200
  26     -0.000000343089
  27      0.000000444233
  28     -0.000000941768
  29      0.000000666099
  30     -0.000000502559
  31      0.000001348052