[Molden Format]
[Title]
generated by TRESC, real part2 of MOs of job Ni0-C2H4
 
[Atoms] AU
Ni   1  28    2.0327243480    6.6651129323   -0.4637853482
 C   2   6    4.4866582262    4.9116344944    1.3008835560
 C   3   6    4.8771137450    4.8741236186   -1.3947805326
 H   4   1    5.7310700770    6.0706468704    2.4997637439
 H   5   1    3.8369470533    3.1858198160    2.2645095603
 H   6   1    4.5308414173    3.1179949920   -2.4558991994
 H   7   1    6.4130479072    6.0088908466   -2.2212746715
[GTO]
  1 0
 s  6 1.0
    71074.8032110000        0.0049184150
    10672.0209410000        0.0200173975
     2428.1389007000        0.0784715325
      685.5359514800        0.2482002663
      223.1007286300        0.4665280195
       76.8420140400        0.3374151926
 s  1 1.0
      148.7112201600        1.0000000000
 s  1 1.0
       17.4591549900        1.0000000000
 s  1 1.0
        7.1625280700        1.0000000000
 s  1 1.0
       12.5561371300        1.0000000000
 s  1 1.0
        2.0735740500        1.0000000000
 s  1 1.0
        0.8538264100        1.0000000000
 s  1 1.0
        0.1053676600        1.0000000000
 s  1 1.0
        0.0381340900        1.0000000000
 p  5 1.0
      916.7360866200        0.0107030171
      216.0613991300        0.0711467350
       68.3839148200        0.2646675976
       24.5938439500        0.5093159720
        9.1392960200        0.3283291628
 p  1 1.0
        4.7193371700        1.0000000000
 p  1 1.0
        1.8161849200        1.0000000000
 p  1 1.0
        0.6784075100        1.0000000000
 d  4 1.0
       47.0938321100        0.0346401353
       13.1464639700        0.1833736831
        4.4170548900        0.4455621030
        1.4771565100        0.5627236040
 d  1 1.0
        0.4373592200        1.0000000000
 p  1 1.0
        0.1465880000        1.0000000000
 f  1 1.0
        2.1740000000        1.0000000000
 
  2 0
 s  5 1.0
     1238.4016938000        0.0059599745
      186.2900499200        0.0422621111
       42.2511763500        0.1866575214
       11.6765579300        0.4675815865
        3.5930506500        0.4422897287
 s  1 1.0
        0.4024514700        1.0000000000
 s  1 1.0
        0.1309018300        1.0000000000
 p  3 1.0
        9.4680970600        0.0570294585
        2.0103545100        0.3130471495
        0.5477100500        0.7605135301
 p  1 1.0
        0.1526861400        1.0000000000
 d  1 1.0
        0.8000000000        1.0000000000
 
  3 0
 s  5 1.0
     1238.4016938000        0.0059599745
      186.2900499200        0.0422621111
       42.2511763500        0.1866575214
       11.6765579300        0.4675815865
        3.5930506500        0.4422897287
 s  1 1.0
        0.4024514700        1.0000000000
 s  1 1.0
        0.1309018300        1.0000000000
 p  3 1.0
        9.4680970600        0.0570294585
        2.0103545100        0.3130471495
        0.5477100500        0.7605135301
 p  1 1.0
        0.1526861400        1.0000000000
 d  1 1.0
        0.8000000000        1.0000000000
 
  4 0
 s  3 1.0
       13.0107010000        0.0391282527
        1.9622572000        0.2855840539
        0.4445379600        0.7689908602
 s  1 1.0
        0.1219496200        1.0000000000
 p  1 1.0
        0.8000000000        1.0000000000
 
  5 0
 s  3 1.0
       13.0107010000        0.0391282527
        1.9622572000        0.2855840539
        0.4445379600        0.7689908602
 s  1 1.0
        0.1219496200        1.0000000000
 p  1 1.0
        0.8000000000        1.0000000000
 
  6 0
 s  3 1.0
       13.0107010000        0.0391282527
        1.9622572000        0.2855840539
        0.4445379600        0.7689908602
 s  1 1.0
        0.1219496200        1.0000000000
 p  1 1.0
        0.8000000000        1.0000000000
 
  7 0
 s  3 1.0
       13.0107010000        0.0391282527
        1.9622572000        0.2855840539
        0.4445379600        0.7689908602
 s  1 1.0
        0.1219496200        1.0000000000
 p  1 1.0
        0.8000000000        1.0000000000
 
[5D]
[7F]
[9G]
[MO]
 Ene=   0.84705709146405E+00
 Spin= Alpha
 Occup=    0.000000
   1      0.000028931998
   2      0.000012255087
   3     -0.000033972938
   4      0.000075812872
   5     -0.000175473539
   6      0.000051137393
   7      0.000755301805
   8      0.013589827014
   9     -0.002306618795
  10     -0.001299312908
  11      0.000019692386
  12      0.008767128948
  13      0.001254600859
  14     -0.000050205429
  15     -0.008036430664
  16      0.003531914262
  17      0.000155328495
  18     -0.025856107721
  19     -0.002899061729
  20     -0.000517677647
  21      0.025408605235
  22     -0.030573774176
  23     -0.110905648952
  24      0.073256592754
  25      0.014772991969
  26     -0.011831426285
  27     -0.009070863024
  28     -0.030400554419
  29      0.023117844807
  30      0.005019112528
  31     -0.004444952823
  32      0.125059080625
  33     -0.015789762827
  34     -0.822090115959
  35      0.000948988141
  36     -0.000775734873
  37      0.000774660701
  38     -0.001264333412
  39      0.003171391005
  40      0.000171353859
  41     -0.000664937823
  42      0.116038182116
  43     -1.197029961102
  44      6.842609316717
  45      0.078797406516
  46     -0.077805236691
  47      0.313342813258
  48      0.112742341706
  49      0.139370077119
  50     -2.467489190009
  51      0.059080562398
  52     -0.031639589780
  53      0.005263435121
  54      0.034041452370
  55     -0.076228354053
  56     -0.116706425503
  57      1.205763107311
  58     -6.870623694988
  59     -0.164038828423
  60      0.086007624318
  61      0.275675820347
  62      0.593695161476
  63     -0.211999924852
  64     -2.388681005236
  65     -0.070947261687
  66     -0.011044399627
  67      0.022755751247
  68     -0.029167367076
  69      0.071137456002
  70     -0.418029707113
  71     -0.323556095979
  72     -0.018320486130
  73     -0.042525043066
  74      0.012114034117
  75     -0.411335780093
  76     -0.319083632710
  77      0.032157129545
  78      0.031150191390
  79      0.018463037633
  80      0.414244450699
  81      0.322860757151
  82     -0.035600820452
  83     -0.031619980873
  84      0.009539072921
  85      0.422663717015
  86      0.329416318920
  87      0.014143218472
  88      0.043195410717
  89      0.015517086899
 Ene=   0.11183232805619E+01
 Spin= Alpha
 Occup=    0.000000
   1     -0.000066424377
   2     -0.000031373434
   3      0.000369391780
   4      0.000497846257
   5     -0.000266083509
   6     -0.001387595460
   7      0.000503994666
   8      0.001532070915
   9      0.000480294892
  10     -0.000918403860
  11     -0.001957604198
  12     -0.000108173385
  13      0.001223835766
  14      0.002156285528
  15      0.000134872512
  16      0.001388976114
  17      0.003996968052
  18      0.000162004679
  19      0.000548079672
  20     -0.000317358828
  21      0.000103412969
  22     -0.004161082372
  23     -0.019347593426
  24     -0.011225059980
  25     -0.144491294190
  26     -0.059245208851
  27      0.005431320784
  28      0.025436031982
  29      0.014474432274
  30      0.190541024088
  31      0.074299882896
  32     -0.007846906985
  33     -0.016848077474
  34     -0.000949677660
  35      0.000020362919
  36      0.000080123949
  37      0.000086323459
  38      0.000191567462
  39     -0.000035080516
  40      0.001177355209
  41     -0.000186572671
  42      0.000163444723
  43     -0.000327939077
  44     -0.003304811175
  45     -0.001015039665
  46     -0.005179772759
  47      0.000139617582
  48     -0.016653739425
  49     -0.023710682903
  50     -0.002434132639
  51      0.002934825729
  52      0.010143810189
  53      0.027188413069
  54     -0.095445642487
  55     -0.044023149902
  56      0.000351829100
  57     -0.001538249104
  58     -0.000443204763
  59     -0.000772859545
  60     -0.005548146736
  61     -0.000441377589
  62     -0.016617113930
  63     -0.024872413909
  64     -0.001689723748
  65     -0.006963795821
  66     -0.035027906252
  67     -0.041445785100
  68     -0.087464372518
  69     -0.035106040244
  70      0.014766544739
  71      0.016789068446
  72     -0.071513678806
  73      0.043648447162
  74      0.036165818447
  75     -0.013842093264
  76     -0.015383870510
  77      0.071901037609
  78     -0.044773113283
  79     -0.036499563425
  80     -0.014441123948
  81     -0.016292731269
  82      0.058354118535
  83     -0.043063834080
  84      0.056825088809
  85      0.014906520556
  86      0.016265386429
  87     -0.058116357187
  88      0.042082977558
  89     -0.056321143670
 Ene=   0.11183232805625E+01
 Spin= Alpha
 Occup=    0.000000
   1     -0.000001293991
   2     -0.000000615904
   3      0.000007932365
   4      0.000011528994
   5     -0.000006911810
   6     -0.000031436448
   7      0.000019410862
   8     -0.000078892833
   9      0.000020648855
  10      0.000004799713
  11     -0.000007157647
  12     -0.000012331883
  13     -0.000010879329
  14      0.000007016174
  15      0.000069867920
  16     -0.000022532934
  17      0.000018402949
  18      0.000053825398
  19      0.000064881622
  20     -0.000010081967
  21     -0.000325513690
  22     -0.000107020310
  23     -0.000455415225
  24     -0.000437206832
  25     -0.000280839480
  26     -0.000061654857
  27      0.000492777697
  28      0.002022134604
  29      0.001095960659
  30      0.000162096092
  31     -0.000009096711
  32     -0.000220237606
  33     -0.000009936259
  34      0.001228080396
  35      0.000003666579
  36     -0.000005422234
  37     -0.000000456666
  38     -0.000016594653
  39     -0.000001840990
  40      0.000005977824
  41     -0.000000240542
  42      0.000014267572
  43      0.000544879843
  44     -0.005024172026
  45      0.000299880775
  46      0.000141010564
  47      0.000182845651
  48     -0.001961697492
  49     -0.003245187941
  50      0.001019996892
  51     -0.000001882212
  52      0.000145292869
  53      0.000127916450
  54     -0.000035111291
  55     -0.000015165793
  56     -0.000000967724
  57     -0.000636564981
  58      0.005137553402
  59     -0.000281679761
  60     -0.000200076379
  61      0.000084805933
  62      0.001445753311
  63      0.003212884826
  64      0.001445833565
  65      0.000016194205
  66     -0.000051046225
  67     -0.000045125153
  68     -0.000402037722
  69     -0.000201790726
  70      0.001302328982
  71      0.001461446955
  72      0.000109323176
  73     -0.000259450925
  74      0.000214888079
  75     -0.000505269707
  76     -0.000753034924
  77     -0.000152766435
  78     -0.000075084273
  79     -0.000156245144
  80      0.000431279169
  81      0.000664098852
  82      0.000474782360
  83     -0.000130893785
  84      0.000157224522
  85     -0.001238899351
  86     -0.001390845097
  87     -0.000419516320
  88      0.000440819510
  89     -0.000090972969
 Ene=   0.12219155377648E+01
 Spin= Alpha
 Occup=    0.000000
   1      0.000168463077
   2      0.000082905516
   3     -0.001339734834
   4     -0.002238386093
   5      0.001620857778
   6      0.005583333386
   7     -0.005686200218
   8      0.038675976596
   9     -0.004050326145
  10     -0.001191799574
  11      0.000868487279
  12     -0.001039633665
  13      0.000708144544
  14     -0.000628152205
  15      0.001885141834
  16      0.004938752688
  17     -0.003544359188
  18      0.003705670017
  19     -0.006191464775
  20      0.004751931534
  21     -0.008144481878
  22     -0.011647320338
  23      0.005878392266
  24     -0.000154060886
  25      0.000320584859
  26     -0.002016767654
  27      0.014642799014
  28     -0.010847090524
  29      0.000187836062
  30      0.001062691187
  31      0.000201410995
  32      0.019894904488
  33     -0.013316784814
  34      0.002986208824
  35      0.000023594445
  36      0.000070760229
  37     -0.000040708474
  38      0.000004061571
  39      0.000038863336
  40      0.000005077472
  41      0.000038043240
  42     -0.001727997840
  43      0.012614479839
  44     -0.011047764613
  45     -0.005774313407
  46      0.003527982191
  47     -0.003322991379
  48      0.016995965533
  49     -0.004979422737
  50     -0.001523287856
  51     -0.001612240672
  52     -0.006604593608
  53      0.004457575227
  54     -0.000352210035
  55      0.001427932832
  56     -0.001657243830
  57      0.019203926040
  58     -0.061339573761
  59     -0.003831503459
  60      0.003007333606
  61      0.000489035055
  62      0.010070428656
  63     -0.012126482534
  64     -0.006442077039
  65      0.000864661748
  66      0.005308514143
  67     -0.003503484336
  68     -0.000873079871
  69      0.001925194230
  70     -0.000328921587
  71      0.000488635498
  72     -0.001478796498
  73      0.004334795068
  74     -0.002518241181
  75      0.001940426413
  76      0.003558662522
  77     -0.002826893038
  78     -0.000271361517
  79     -0.002373634705
  80      0.004068612169
  81      0.005424787484
  82     -0.003206210610
  83     -0.000844972247
  84      0.000475711261
  85      0.006315111410
  86      0.008505357693
  87      0.000360538816
  88      0.001751615786
  89      0.000762055240
 Ene=   0.12219155377649E+01
 Spin= Alpha
 Occup=    0.000000
   1     -0.005809673968
   2     -0.002858778236
   3      0.046179075648
   4      0.077145835228
   5     -0.055846441242
   6     -0.192466366808
   7      0.195977881654
   8     -1.332920618317
   9      0.139207650983
  10      0.045613462883
  11     -0.029969712412
  12      0.007277849876
  13     -0.034047707691
  14      0.021624875423
  15     -0.005286895104
  16     -0.185647927667
  17      0.122260243403
  18     -0.029912665344
  19      0.251849763484
  20     -0.163640973597
  21      0.040444526855
  22      0.426518390296
  23     -0.117748507020
  24      0.021973678071
  25     -0.022995237228
  26      0.067494634736
  27     -0.567738108292
  28      0.150730418445
  29     -0.017537698166
  30     -0.003737837776
  31     -0.007603237430
  32     -0.686693459506
  33      0.457446814959
  34     -0.105151407365
  35     -0.000937678876
  36     -0.002253318623
  37      0.001562725779
  38      0.000503551779
  39     -0.000733122075
  40     -0.000307938043
  41     -0.001408622802
  42      0.058547465189
  43     -0.548211504630
  44      1.235737083125
  45      0.161248906343
  46     -0.111955792458
  47      0.085993911511
  48     -0.428748064369
  49      0.285360107134
  50     -0.131852936335
  51      0.062100640518
  52      0.202058423178
  53     -0.143237457530
  54     -0.004099456577
  55     -0.036668271791
  56      0.058487547896
  57     -0.551116784000
  58      1.263883282223
  59      0.177451981526
  60     -0.114096623022
  61     -0.032845518061
  62     -0.446352895539
  63      0.298138845729
  64      0.002591706113
  65     -0.046545223412
  66     -0.196926917964
  67      0.128020118062
  68      0.052844101386
  69     -0.081241375366
  70     -0.101372538353
  71     -0.152715219544
  72      0.015288284174
  73     -0.104907668373
  74      0.055732074794
  75     -0.103768439913
  76     -0.157064347583
  77      0.099205608998
  78      0.018785769347
  79      0.063268658971
  80     -0.103850215902
  81     -0.154559687589
  82      0.112761083343
  83      0.020515713119
  84     -0.035575277283
  85     -0.105290830891
  86     -0.157998625766
  87      0.031599245549
  88     -0.106876964972
  89     -0.044672683002
 Ene=   0.12672288652058E+01
 Spin= Alpha
 Occup=    0.000000
   1     -0.006453340936
   2     -0.003170860550
   3      0.050623570368
   4      0.083913067252
   5     -0.060313762936
   6     -0.209467672036
   7      0.192578384988
   8     -0.594268114414
   9      0.073379250656
  10      0.046638630151
  11     -0.030129991799
  12      0.007321674009
  13     -0.033018932433
  14      0.020059472983
  15     -0.005112502714
  16     -0.200108259866
  17      0.130052662242
  18     -0.031577130226
  19      0.281953102763
  20     -0.179939867431
  21      0.044408855203
  22     -0.303094023666
  23      0.054888503984
  24      0.029996428056
  25     -0.118736439025
  26      0.268215689682
  27      0.452142370314
  28     -0.087991792282
  29     -0.033591798008
  30      0.144115437939
  31     -0.316341697381
  32     -0.352759143448
  33      0.233868323179
  34     -0.052506411756
  35     -0.000235785075
  36     -0.000580962529
  37      0.000341273129
  38      0.000097777980
  39     -0.000652032279
  40     -0.000582339717
  41     -0.002929647570
  42      0.011083567835
  43     -0.065110223683
  44      0.127578383273
  45      0.107191582984
  46     -0.072833785654
  47      0.038413599854
  48     -0.239575630259
  49      0.168926087780
  50     -0.170665645783
  51     -0.050805421446
  52      0.122025272396
  53     -0.082561188233
  54      0.035563100074
  55     -0.104373702665
  56      0.011420360919
  57     -0.070674218397
  58      0.165708792498
  59      0.113875036885
  60     -0.073514052729
  61     -0.004470898666
  62     -0.282032176932
  63      0.174494039726
  64      0.101443562420
  65     -0.101517107745
  66     -0.064195103120
  67      0.046250869822
  68      0.062352023004
  69     -0.125424570307
  70      0.030060935710
  71      0.066660852235
  72      0.104071495825
  73     -0.070735114654
  74     -0.011954492938
  75      0.028984237452
  76      0.064720750049
  77      0.103063529641
  78     -0.064501098674
  79     -0.012112642736
  80      0.026813990931
  81      0.062780183686
  82      0.093754605325
  83     -0.062592228432
  84      0.043134206790
  85      0.027989252026
  86      0.064212789828
  87      0.096754436930
  88     -0.069671321315
  89      0.044089379898
 Ene=   0.12672288652058E+01
 Spin= Alpha
 Occup=    0.000000
   1      0.000273153891
   2      0.000134210302
   3     -0.002142489550
   4     -0.003551386830
   5      0.002552349463
   6      0.008865799157
   7     -0.008149639616
   8      0.025108221507
   9     -0.003102097900
  10     -0.002122147297
  11      0.001273709994
  12      0.000637785874
  13      0.001709381114
  14     -0.000852944799
  15     -0.001787984040
  16      0.009000420677
  17     -0.005497854688
  18     -0.002065650569
  19     -0.013285590079
  20      0.007628789786
  21      0.006835017236
  22      0.013316322609
  23     -0.000434740589
  24      0.002366101940
  25      0.004730383601
  26     -0.011856156864
  27     -0.020322802217
  28     -0.001013529677
  29     -0.004711228268
  30     -0.005390896419
  31      0.014204216869
  32      0.015770181647
  33     -0.009947241101
  34     -0.003537702917
  35     -0.000005986212
  36      0.000043438449
  37     -0.000017570932
  38      0.000047854794
  39      0.000010438832
  40      0.000015592583
  41      0.000128155557
  42     -0.000507340466
  43      0.003364424321
  44     -0.006081140002
  45     -0.004638712281
  46      0.002379478543
  47     -0.001677038470
  48      0.011943841748
  49      0.000614551039
  50      0.007336256902
  51      0.002111188460
  52     -0.004840455964
  53      0.003037057964
  54     -0.002118656652
  55      0.003600462292
  56     -0.000432431989
  57      0.002261514035
  58     -0.006098713710
  59     -0.004707025282
  60      0.003782810941
  61      0.000140848613
  62      0.010198038037
  63     -0.015060692551
  64     -0.004496204882
  65      0.004544823258
  66      0.003023887260
  67     -0.002136899282
  68     -0.002171773497
  69      0.006228243624
  70     -0.002637974130
  71     -0.004369898527
  72     -0.005367107476
  73      0.004192121098
  74      0.000831733626
  75      0.000740782635
  76      0.000223812544
  77     -0.002090888804
  78      0.002159461429
  79      0.001333100501
  80     -0.003099822400
  81     -0.005627600884
  82     -0.006250154975
  83      0.003200503161
  84     -0.001705127375
  85      0.000117845807
  86     -0.001279968136
  87     -0.003368427708
  88      0.001835944194
  89     -0.001287773800
 Ene=   0.13196450405603E+01
 Spin= Alpha
 Occup=    0.000000
   1      0.000014504732
   2      0.000007399152
   3     -0.000140306933
   4     -0.000251478073
   5      0.000197047404
   6      0.000599728724
   7     -0.000698708585
   8      0.003972349136
   9     -0.000115956416
  10     -0.000219075506
  11      0.000064977467
  12     -0.000108068511
  13      0.000147428816
  14     -0.000052470299
  15      0.000089412722
  16      0.000964527305
  17     -0.000272493716
  18      0.000424283492
  19     -0.001375616938
  20      0.000424476804
  21     -0.000558731756
  22      0.011188878393
  23      0.056739851687
  24      0.087557331881
  25     -0.008085048326
  26     -0.012331212251
  27     -0.014693639373
  28     -0.075284543784
  29     -0.115270328696
  30      0.010574265166
  31      0.015917962849
  32      0.002011530267
  33     -0.001955768407
  34      0.000163151917
  35      0.000009152017
  36      0.000080561949
  37      0.000043961349
  38      0.000371967683
  39      0.000149955903
  40     -0.000079478755
  41     -0.000010590884
  42     -0.000167331082
  43      0.001178650045
  44     -0.001887121936
  45      0.029751805703
  46      0.047159165188
  47      0.003458392374
  48     -0.194706736528
  49     -0.300721857394
  50     -0.023836959562
  51      0.009404776108
  52      0.034859324457
  53      0.071897437044
  54     -0.127333202787
  55     -0.060632474547
  56     -0.000159241527
  57      0.001470543595
  58     -0.003827389438
  59     -0.031371431418
  60     -0.046368238035
  61     -0.003782790014
  62      0.198215617968
  63      0.300084993111
  64      0.024253708210
  65      0.013427940139
  66      0.067968649685
  67      0.089208143929
  68      0.108789721277
  69      0.040223030012
  70      0.063237241830
  71      0.127240581201
  72     -0.227625459968
  73      0.077006328192
  74      0.155175418052
  75     -0.063179726510
  76     -0.127406366175
  77      0.172621879064
  78     -0.160137736834
  79     -0.162265747303
  80      0.064065971442
  81      0.127850352327
  82     -0.118042927432
  83      0.153910796797
  84     -0.209004357102
  85     -0.063502678698
  86     -0.127590745338
  87      0.172732341505
  88     -0.069789858277
  89      0.215934261739
 Ene=   0.13196450405604E+01
 Spin= Alpha
 Occup=    0.000000
   1     -0.000021202961
   2     -0.000010511388
   3      0.000176290131
   4      0.000299293834
   5     -0.000221236243
   6     -0.000734648168
   7      0.000697902926
   8     -0.001198487834
   9      0.000137019973
  10      0.000199555087
  11     -0.000070938997
  12      0.000021011287
  13     -0.000131510471
  14      0.000048097870
  15     -0.000006194654
  16     -0.000880022959
  17      0.000349609210
  18     -0.000099688698
  19      0.001237601308
  20     -0.000586036236
  21      0.000124241994
  22     -0.002363867353
  23      0.000548123934
  24      0.000158769975
  25     -0.000844694500
  26      0.001155099950
  27      0.003123623567
  28     -0.000721797643
  29     -0.000139482649
  30      0.001401869070
  31     -0.001101069677
  32     -0.000746471181
  33      0.000938486244
  34     -0.000129240298
  35      0.000001296379
  36      0.000003213795
  37     -0.000002200758
  38     -0.000001716826
  39     -0.000001711872
  40     -0.000009608157
  41     -0.000013541133
  42     -0.000051906899
  43      0.000577720797
  44     -0.000788703184
  45      0.000278501610
  46     -0.000077032859
  47      0.000003675970
  48     -0.000958544602
  49     -0.000088041039
  50     -0.000668515210
  51     -0.000430217934
  52      0.000209313988
  53     -0.000235408239
  54      0.000407576036
  55     -0.000436003038
  56     -0.000048609942
  57      0.000628768772
  58     -0.001216754292
  59      0.000263822894
  60     -0.000144122370
  61      0.000056937142
  62     -0.000942858854
  63      0.000233609963
  64      0.000311662400
  65     -0.000447907893
  66      0.000231597346
  67      0.000205648918
  68      0.000567288149
  69     -0.000446619796
  70      0.000477508801
  71      0.000719571726
  72      0.000792985032
  73     -0.000490743682
  74     -0.000102210684
  75      0.000061082864
  76      0.000305886694
  77     -0.000001603884
  78     -0.000308849307
  79     -0.000319974662
  80      0.000164222568
  81      0.000482207400
  82     -0.000246714287
  83     -0.000116559868
  84      0.000043990442
  85      0.000467569570
  86      0.000640266176
  87      0.000986995137
  88     -0.000611760110
  89      0.000596179765
 Ene=   0.13701670381156E+01
 Spin= Alpha
 Occup=    0.000000
   1      0.000002595021
   2      0.000001392247
   3     -0.000032861897
   4     -0.000063339771
   5      0.000053140476
   6      0.000145454454
   7     -0.000180907791
   8      0.000278654210
   9     -0.000025790785
  10      0.000038358727
  11      0.000000034783
  12     -0.000638721871
  13     -0.000022424712
  14      0.000003134296
  15      0.000479747976
  16     -0.000122826655
  17     -0.000018853619
  18      0.002613597319
  19      0.000055236743
  20      0.000055178026
  21     -0.003400313800
  22      0.008293514444
  23      0.030267287504
  24      0.038846362196
  25     -0.004672129907
  26     -0.005636285800
  27     -0.013016362456
  28     -0.049409761095
  29     -0.058920608574
  30      0.007861109238
  31      0.008238488076
  32      0.001042912783
  33     -0.000201344520
  34     -0.004455585469
  35      0.000009346196
  36      0.000057507118
  37      0.000038351257
  38      0.000282072561
  39      0.000110082209
  40     -0.000054681299
  41     -0.000007960473
  42     -0.000073370236
  43     -0.004649035231
  44      0.033633881648
  45     -0.005789809052
  46     -0.005946189258
  47     -0.002022512429
  48      0.041834964642
  49      0.059500477173
  50     -0.000717174953
  51     -0.000189969768
  52     -0.004547452779
  53     -0.004996215446
  54     -0.000098743279
  55      0.001923088845
  56      0.000209519473
  57      0.003457656931
  58     -0.031928953712
  59      0.006180750272
  60      0.005850113712
  61     -0.000506456858
  62     -0.039575663175
  63     -0.059888702595
  64     -0.011206836628
  65     -0.001346692231
  66     -0.004372370256
  67     -0.005113312247
  68      0.001434179737
  69     -0.000061605956
  70     -0.017554236798
  71     -0.026857006102
  72      0.000379189165
  73      0.017427879921
  74     -0.015437997946
  75      0.010626633364
  76      0.019724853837
  77      0.011142506219
  78      0.007611112294
  79      0.014778379129
  80     -0.010854300061
  81     -0.020274764110
  82     -0.014875570968
  83     -0.006842086503
  84      0.010692545239
  85      0.017211601113
  86      0.026134928350
  87      0.003530390289
  88     -0.017762724566
  89     -0.014706243821
 Ene=   0.13701670381160E+01
 Spin= Alpha
 Occup=    0.000000
   1     -0.000032692501
   2     -0.000016464369
   3      0.000300036626
   4      0.000528850971
   5     -0.000407022890
   6     -0.001266276220
   7      0.001312139876
   8     -0.002011673091
   9      0.000124867941
  10      0.000662940212
  11      0.000298570424
  12      0.000086411061
  13     -0.000429597149
  14     -0.000225180274
  15     -0.000053235399
  16     -0.002912809863
  17     -0.001091400317
  18     -0.000387620439
  19      0.003978184844
  20      0.001057139476
  21      0.000535835418
  22     -0.004979447363
  23      0.002049137746
  24      0.002219500966
  25     -0.006232321678
  26      0.000085551888
  27      0.006053414552
  28     -0.002745220554
  29     -0.003183420741
  30      0.010319880834
  31      0.001807686279
  32     -0.000584896717
  33      0.003277408839
  34     -0.000207880032
  35      0.000006027401
  36      0.000017160474
  37     -0.000007182995
  38      0.000005833780
  39      0.000003415729
  40     -0.000047569963
  41     -0.000027793926
  42     -0.000190679082
  43      0.001812715850
  44     -0.002140891704
  45      0.000269192029
  46     -0.000150488736
  47     -0.000148360977
  48     -0.000971726690
  49      0.001110594344
  50     -0.000919312914
  51     -0.001257815470
  52     -0.000463509647
  53     -0.001513785874
  54      0.001974376462
  55     -0.000414420814
  56     -0.000185012558
  57      0.001876617956
  58     -0.002832943446
  59      0.000756754674
  60      0.000625672861
  61      0.000259833301
  62     -0.005694972157
  63     -0.005915713566
  64     -0.000170620313
  65     -0.000912929805
  66      0.001149199122
  67      0.000712360702
  68      0.001762652898
  69     -0.000680678188
  70      0.001313870788
  71      0.000952970001
  72      0.004404450944
  73     -0.002959045257
  74     -0.000512740651
  75     -0.000199571391
  76      0.001279204191
  77     -0.002974337795
  78      0.000873437875
  79     -0.000629117793
  80     -0.001787823204
  81     -0.001358443400
  82     -0.005001816712
  83      0.000178530241
  84      0.001047181176
  85      0.003002996904
  86      0.003684237284
  87      0.004384006530
  88     -0.004848212275
  89      0.000299691473
 Ene=   0.14047225317620E+01
 Spin= Alpha
 Occup=    0.000000
   1     -0.000020678675
   2     -0.000010333659
   3      0.000181539374
   4      0.000315840151
   5     -0.000238236273
   6     -0.000776502761
   7      0.000833555489
   8     -0.003430649735
   9      0.000516450264
  10      0.000344178232
  11     -0.000064692334
  12     -0.001631176474
  13     -0.000199467799
  14     -0.000056706425
  15      0.001810371968
  16     -0.001539270305
  17      0.000358812135
  18      0.006646046121
  19      0.002084143754
  20     -0.000254931489
  21     -0.011080369053
  22      0.000216936886
  23      0.001326672898
  24     -0.010312469977
  25     -0.000401642239
  26      0.002197720085
  27     -0.000473275708
  28     -0.003006175831
  29      0.015657135722
  30      0.000437790760
  31     -0.002610053166