[Molden Format]
[Title]
generated by TRESC, imaginary part1 of MOs of job Ni0-C2H4
 
[Atoms] AU
Ni   1  28    2.0327243480    6.6651129323   -0.4637853482
 C   2   6    4.4866582262    4.9116344944    1.3008835560
 C   3   6    4.8771137450    4.8741236186   -1.3947805326
 H   4   1    5.7310700770    6.0706468704    2.4997637439
 H   5   1    3.8369470533    3.1858198160    2.2645095603
 H   6   1    4.5308414173    3.1179949920   -2.4558991994
 H   7   1    6.4130479072    6.0088908466   -2.2212746715
[GTO]
  1 0
 s  6 1.0
    71074.8032110000        0.0049184150
    10672.0209410000        0.0200173975
     2428.1389007000        0.0784715325
      685.5359514800        0.2482002663
      223.1007286300        0.4665280195
       76.8420140400        0.3374151926
 s  1 1.0
      148.7112201600        1.0000000000
 s  1 1.0
       17.4591549900        1.0000000000
 s  1 1.0
        7.1625280700        1.0000000000
 s  1 1.0
       12.5561371300        1.0000000000
 s  1 1.0
        2.0735740500        1.0000000000
 s  1 1.0
        0.8538264100        1.0000000000
 s  1 1.0
        0.1053676600        1.0000000000
 s  1 1.0
        0.0381340900        1.0000000000
 p  5 1.0
      916.7360866200        0.0107030171
      216.0613991300        0.0711467350
       68.3839148200        0.2646675976
       24.5938439500        0.5093159720
        9.1392960200        0.3283291628
 p  1 1.0
        4.7193371700        1.0000000000
 p  1 1.0
        1.8161849200        1.0000000000
 p  1 1.0
        0.6784075100        1.0000000000
 d  4 1.0
       47.0938321100        0.0346401353
       13.1464639700        0.1833736831
        4.4170548900        0.4455621030
        1.4771565100        0.5627236040
 d  1 1.0
        0.4373592200        1.0000000000
 p  1 1.0
        0.1465880000        1.0000000000
 f  1 1.0
        2.1740000000        1.0000000000
 
  2 0
 s  5 1.0
     1238.4016938000        0.0059599745
      186.2900499200        0.0422621111
       42.2511763500        0.1866575214
       11.6765579300        0.4675815865
        3.5930506500        0.4422897287
 s  1 1.0
        0.4024514700        1.0000000000
 s  1 1.0
        0.1309018300        1.0000000000
 p  3 1.0
        9.4680970600        0.0570294585
        2.0103545100        0.3130471495
        0.5477100500        0.7605135301
 p  1 1.0
        0.1526861400        1.0000000000
 d  1 1.0
        0.8000000000        1.0000000000
 
  3 0
 s  5 1.0
     1238.4016938000        0.0059599745
      186.2900499200        0.0422621111
       42.2511763500        0.1866575214
       11.6765579300        0.4675815865
        3.5930506500        0.4422897287
 s  1 1.0
        0.4024514700        1.0000000000
 s  1 1.0
        0.1309018300        1.0000000000
 p  3 1.0
        9.4680970600        0.0570294585
        2.0103545100        0.3130471495
        0.5477100500        0.7605135301
 p  1 1.0
        0.1526861400        1.0000000000
 d  1 1.0
        0.8000000000        1.0000000000
 
  4 0
 s  3 1.0
       13.0107010000        0.0391282527
        1.9622572000        0.2855840539
        0.4445379600        0.7689908602
 s  1 1.0
        0.1219496200        1.0000000000
 p  1 1.0
        0.8000000000        1.0000000000
 
  5 0
 s  3 1.0
       13.0107010000        0.0391282527
        1.9622572000        0.2855840539
        0.4445379600        0.7689908602
 s  1 1.0
        0.1219496200        1.0000000000
 p  1 1.0
        0.8000000000        1.0000000000
 
  6 0
 s  3 1.0
       13.0107010000        0.0391282527
        1.9622572000        0.2855840539
        0.4445379600        0.7689908602
 s  1 1.0
        0.1219496200        1.0000000000
 p  1 1.0
        0.8000000000        1.0000000000
 
  7 0
 s  3 1.0
       13.0107010000        0.0391282527
        1.9622572000        0.2855840539
        0.4445379600        0.7689908602
 s  1 1.0
        0.1219496200        1.0000000000
 p  1 1.0
        0.8000000000        1.0000000000
 
[5D]
[7F]
[9G]
[MO]
 Ene=  -0.30448557006677E+03
 Spin= Alpha
 Occup=    1.000000
   1     -0.918780114037
   2     -0.046868432205
   3     -0.032765326419
   4      0.003549075811
   5      0.010983811972
   6     -0.001732482326
   7      0.000781221651
   8     -0.000267635621
   9      0.000089040061
  10      0.000006492916
  11     -0.000004098432
  12      0.000001429618
  13     -0.000001941538
  14      0.000000910066
  15     -0.000001120804
  16     -0.000005131610
  17      0.000004487188
  18     -0.000000269181
  19      0.000012925504
  20     -0.000010506040
  21      0.000001830810
  22     -0.000000750188
  23      0.000000793084
  24     -0.000000653528
  25      0.000001125695
  26     -0.000003705753
  27      0.000003164803
  28     -0.000002270401
  29      0.000002510459
  30     -0.000007021308
  31      0.000017007092
  32     -0.000064942546
  33      0.000044013940
  34     -0.000010333029
  35     -0.000000092466
  36     -0.000000175458
  37      0.000000173950
  38      0.000000053281
  39     -0.000000042468
  40      0.000000081493
  41      0.000000420873
  42     -0.000000462304
  43      0.000001339005
  44      0.000086496635
  45     -0.000004394784
  46      0.000003110286
  47     -0.000002760680
  48     -0.000024755529
  49      0.000016099638
  50      0.000003396677
  51     -0.000002170084
  52     -0.000000322871
  53      0.000000864406
  54     -0.000001554308
  55      0.000003937539
  56     -0.000000614000
  57      0.000001844059
  58      0.000083642022
  59     -0.000004953676
  60      0.000003107245
  61      0.000002603158
  62     -0.000022194857
  63      0.000015085348
  64     -0.000012973238
  65     -0.000001402020
  66      0.000000754130
  67      0.000000152863
  68     -0.000001772953
  69      0.000004097633
  70     -0.000005858431
  71     -0.000018877408
  72      0.000001797983
  73      0.000001703094
  74     -0.000000733085
  75     -0.000005793264
  76     -0.000018721535
  77     -0.000000221624
  78     -0.000002167770
  79     -0.000001088130
  80     -0.000005776172
  81     -0.000019304244
  82     -0.000001103818
  83     -0.000002573235
  84      0.000001303608
  85     -0.000005711798
  86     -0.000018635922
  87      0.000001298416
  88      0.000002198759
  89      0.000001568339
 Ene=  -0.30448557006677E+03
 Spin= Alpha
 Occup=    0.000000
   1     -0.000000001147
   2     -0.000000000077
   3      0.000000000034
   4      0.000000000093
   5     -0.000000000117
   6     -0.000000000089
   7      0.000000000133
   8     -0.000000000687
   9      0.000000000140
  10     -0.000000000345
  11     -0.000000009427
  12     -0.000000004810
  13     -0.000000000009
  14      0.000000009894
  15      0.000000015726
  16      0.000000000034
  17     -0.000000007511
  18     -0.000000014273
  19     -0.000000000031
  20      0.000000003105
  21      0.000000005955
  22     -0.000000000093
  23     -0.000000000172
  24     -0.000000004677
  25     -0.000000000066
  26     -0.000000000143
  27     -0.000000000068
  28     -0.000000000534
  29      0.000000002201
  30      0.000000000002
  31      0.000000000111
  32     -0.000000000177
  33     -0.000000000370
  34     -0.000000002294
  35      0.000000005207
  36     -0.000000000309
  37      0.000000002008
  38      0.000000007146
  39      0.000000005619
  40     -0.000000000394
  41     -0.000000001060
  42      0.000000000088
  43     -0.000000000359
  44      0.000000004399
  45     -0.000000000221
  46     -0.000000000111
  47     -0.000000000407
  48     -0.000000001282
  49      0.000000000618
  50     -0.000000001211
  51     -0.000000000343
  52     -0.000000000379
  53     -0.000000000232
  54     -0.000000000200
  55     -0.000000000443
  56     -0.000000000111
  57      0.000000000264
  58     -0.000000003681
  59      0.000000000110
  60      0.000000000049
  61     -0.000000000310
  62      0.000000001300
  63     -0.000000000291
  64     -0.000000000632
  65      0.000000000077
  66     -0.000000000462
  67      0.000000000148
  68      0.000000000111
  69      0.000000000154
  70      0.000000000165
  71     -0.000000000106
  72     -0.000000000159
  73     -0.000000000200
  74     -0.000000000249
  75     -0.000000000379
  76     -0.000000000409
  77      0.000000000110
  78     -0.000000000130
  79      0.000000000226
  80      0.000000000295
  81      0.000000000256
  82     -0.000000000112
  83     -0.000000000031
  84      0.000000000103
  85     -0.000000000085
  86      0.000000000072
  87      0.000000000057
  88      0.000000000122
  89     -0.000000000173
 Ene=  -0.36676537564109E+02
 Spin= Alpha
 Occup=    1.000000
   1     -0.325499526424
   2     -0.124807905618
   3      0.719219156144
   4      0.453605777354
   5     -0.053357976407
   6      0.016499962516
   7     -0.001996371001
   8      0.000329881800
   9     -0.000157780040
  10     -0.000224413498
  11      0.000154705013
  12     -0.000039998255
  13      0.000005333206
  14     -0.000004396481
  15     -0.000000849291
  16     -0.000012604548
  17      0.000010632348
  18     -0.000001484888
  19     -0.000010794224
  20      0.000003249906
  21     -0.000001755554
  22      0.000017993943
  23      0.000009440931
  24     -0.000024225601
  25      0.000075701873
  26     -0.000180703592
  27      0.000001222666
  28     -0.000004866482
  29      0.000008810047
  30     -0.000027760834
  31      0.000066087202
  32      0.000006889017
  33     -0.000003632992
  34      0.000001794515
  35     -0.000000439124
  36     -0.000000901967
  37      0.000000740911
  38      0.000000251122
  39     -0.000000170703
  40      0.000000186993
  41      0.000001068114
  42     -0.000000763287
  43     -0.000008210442
  44     -0.000055464853
  45     -0.000004548118
  46      0.000003108468
  47     -0.000001369546
  48      0.000003107057
  49     -0.000000489259
  50     -0.000026449960
  51      0.000000019045
  52      0.000011846002
  53     -0.000009336070
  54      0.000006892403
  55     -0.000018037222
  56     -0.000001220612
  57     -0.000008402647
  58     -0.000049862840
  59     -0.000004984990
  60      0.000003178878
  61      0.000002828246
  62     -0.000005182142
  63      0.000001647852
  64      0.000027306118
  65     -0.000004823293
  66     -0.000007849754
  67      0.000004015465
  68      0.000009853839
  69     -0.000020833044
  70      0.000006180363
  71      0.000029245484
  72     -0.000002398285
  73     -0.000004594578
  74      0.000002069617
  75      0.000006141731
  76      0.000028774941
  77      0.000004327065
  78      0.000003821612
  79      0.000002743247
  80      0.000006301529
  81      0.000028861423
  82      0.000003847954
  83      0.000003102531
  84     -0.000001007642
  85      0.000006030338
  86      0.000028230068
  87     -0.000001772238
  88     -0.000004211273
  89     -0.000002073354
 Ene=  -0.36676537564109E+02
 Spin= Alpha
 Occup=    0.000000
   1     -0.000187432479
   2     -0.000071868166
   3      0.000414147881
   4      0.000261198847
   5     -0.000030724198
   6      0.000009501945
   7     -0.000001149869
   8      0.000000186126
   9     -0.000000087532
  10     -0.000000132896
  11     -0.000003189754
  12     -0.000008078715
  13      0.000000001936
  14      0.000000492306
  15      0.000001228275
  16     -0.000000005132
  17     -0.000000326553
  18     -0.000000830973
  19     -0.000000008881
  20      0.000000139353
  21      0.000000343272
  22      0.000000002591
  23     -0.000000023846
  24     -0.000000043421
  25      0.000000040064
  26     -0.000000106541
  27      0.000000004792
  28      0.000000011509
  29      0.000000020355
  30     -0.000000015316
  31      0.000000039738
  32      0.000000004218
  33     -0.000000032746
  34     -0.000000077587
  35      0.000000029510
  36     -0.000000002394
  37      0.000000011765
  38      0.000000039659
  39      0.000000030448
  40     -0.000000002249
  41     -0.000000005119
  42      0.000000002238
  43     -0.000000000174
  44     -0.000000082674
  45     -0.000000000821
  46     -0.000000000759
  47     -0.000000002231
  48     -0.000000013673
  49     -0.000000004314
  50      0.000000020591
  51     -0.000000000134
  52      0.000000000025
  53     -0.000000003086
  54      0.000000002975
  55     -0.000000006934
  56     -0.000000003724
  57     -0.000000011366
  58      0.000000024851
  59     -0.000000006485
  60      0.000000003604
  61     -0.000000000191
  62      0.000000000485
  63      0.000000007298
  64      0.000000055920
  65     -0.000000006986
  66     -0.000000010486
  67      0.000000005558
  68      0.000000009653
  69     -0.000000019606
  70      0.000000004704
  71      0.000000027740
  72     -0.000000003440
  73     -0.000000000744
  74     -0.000000003821
  75     -0.000000000059
  76      0.000000012785
  77      0.000000002601
  78      0.000000000443
  79      0.000000001061
  80      0.000000008037
  81      0.000000010661
  82      0.000000004743
  83      0.000000000861
  84     -0.000000002638
  85      0.000000002821
  86      0.000000010312
  87     -0.000000000953
  88     -0.000000004239
  89     -0.000000004739
 Ene=  -0.32108013480356E+02
 Spin= Alpha
 Occup=    0.469900
   1     -0.000023491447
   2     -0.000008804138
   3     -0.000027754646
   4     -0.000060183708
   5      0.000148146490
   6      0.000081383278
   7     -0.000073574305
   8     -0.000051766041
   9      0.000252587424
  10      0.061698818076
  11     -0.367204819706
  12      0.091652366079
  13     -0.000991304006
  14      0.006424039031
  15     -0.001574623344
  16      0.001787371515
  17     -0.010393793177
  18      0.002585276096
  19     -0.000745778740
  20      0.003773369907
  21     -0.000946807643
  22      0.000003860719
  23      0.000001530031
  24     -0.000000107347
  25      0.000013744091
  26      0.000004436723
  27      0.000014987906
  28     -0.000010520374
  29      0.000003972224
  30     -0.000027065393
  31      0.000012267756
  32      0.000266403914
  33     -0.000934345617
  34      0.000230710425
  35     -0.000002450309
  36     -0.000016424467
  37      0.000003815645
  38      0.000000237186
  39      0.000000174687
  40     -0.000017006798
  41      0.000000531329
  42     -0.000013845458
  43     -0.000084270777
  44      0.000101246513
  45     -0.000045993182
  46      0.000023994025
  47     -0.000021273301
  48      0.000055729870
  49     -0.000004452693
  50     -0.000119900763
  51     -0.000009025887
  52      0.000086731932
  53     -0.000064544943
  54      0.000045744406
  55     -0.000105546010
  56     -0.000010372473
  57     -0.000065313162
  58     -0.000153565548
  59     -0.000036257883
  60      0.000015153642
  61      0.000004785621
  62      0.000032397892
  63      0.000007410343
  64     -0.000042436464
  65     -0.000032763552
  66     -0.000036820853
  67      0.000021510780
  68      0.000053348121
  69     -0.000096335840
  70      0.000023298055
  71     -0.000041100156
  72     -0.000022678516
  73     -0.000009574146
  74      0.000006770636
  75      0.000046498032
  76     -0.000169721348
  77      0.000029661496
  78     -0.000012518340
  79      0.000032773079
  80      0.000041013777
  81     -0.000144012312
  82      0.000028471777
  83     -0.000014206006
  84     -0.000011193162
  85      0.000017144991
  86     -0.000017471615
  87     -0.000023445929
  88     -0.000002543008
  89     -0.000000930022
 Ene=  -0.32108013480355E+02
 Spin= Alpha
 Occup=    0.530100
   1     -0.000020063009
   2     -0.000007429777
   3     -0.000026455233
   4     -0.000053718460
   5      0.000130956418
   6      0.000071062984
   7     -0.000063948759
   8     -0.000046433346
   9      0.000219412242
  10      0.003146831621
  11     -0.443318450939
  12     -0.131581818668
  13      0.000041120125
  14      0.007777362689
  15      0.002287564166
  16      0.000126467876
  17     -0.012537847369
  18     -0.003693173712
  19     -0.000143850859
  20      0.004527512284
  21      0.001316775715
  22      0.000002761219
  23      0.000000025252
  24      0.000002883405
  25      0.000019494823
  26      0.000006356373
  27      0.000015369347
  28     -0.000002552721
  29     -0.000003223810
  30     -0.000035195329
  31      0.000007803795
  32      0.000112784896
  33     -0.001099625127
  34     -0.000285004572
  35     -0.000011560361
  36     -0.000012413100
  37     -0.000000932959
  38      0.000000216070
  39     -0.000003292146
  40     -0.000023796847
  41      0.000003026786
  42     -0.000007087372
  43     -0.000048478529
  44     -0.000252561456
  45     -0.000023338288
  46      0.000004938646
  47     -0.000010253408
  48      0.000005131901
  49      0.000018572989
  50      0.000126575850
  51     -0.000001995416
  52      0.000042404240
  53     -0.000032457278
  54      0.000033598985
  55     -0.000060701240
  56     -0.000014099256
  57     -0.000081063523
  58      0.000208298632
  59     -0.000054142865
  60      0.000023395022
  61      0.000006351895
  62      0.000015251997
  63      0.000009537088
  64      0.000198861289
  65     -0.000049575081
  66     -0.000052494739
  67      0.000032653418
  68      0.000067677185
  69     -0.000118173390
  70      0.000005508359
  71      0.000030352713
  72     -0.000031338709
  73      0.000005876493
  74     -0.000017575827
  75      0.000038523659
  76     -0.000151207778
  77      0.000026336990
  78     -0.000022893214
  79      0.000017148584
  80      0.000050489441
  81     -0.000190581295
  82      0.000046813805
  83     -0.000020508698
  84     -0.000027857756
  85      0.000016545628
  86     -0.000011588230
  87     -0.000029053215
  88     -0.000008017678
  89     -0.000013560967
 Ene=  -0.31453130949826E+02
 Spin= Alpha
 Occup=    0.518718
   1      0.000023800226
   2      0.000009423964
   3      0.000004125608
   4      0.000014058139
   5     -0.000098274460
   6     -0.000036327547
   7      0.000036637625
   8      0.000035321660
   9     -0.000137689336
  10     -0.185305424745
  11      0.196486554728
  12     -0.361835860145
  13     -0.000987265555
  14      0.000989738092
  15     -0.001802499742
  16     -0.003064530865
  17      0.003262825895
  18     -0.005969342059
  19      0.000976770860
  20     -0.001014104454
  21      0.001811965593
  22     -0.000006800051
  23     -0.000002069313
  24      0.000001489976
  25     -0.000001423890
  26     -0.000001259575
  27     -0.000006814348
  28      0.000010874920
  29     -0.000006714661
  30      0.000005943638
  31     -0.000011570033
  32     -0.000264058754
  33      0.000256617551
  34     -0.000402502278
  35     -0.000007366234
  36      0.000021417814
  37     -0.000011014674
  38     -0.000001134232
  39     -0.000001446125
  40      0.000003454973
  41      0.000005920176
  42      0.000011278517
  43      0.000056796985
  44     -0.000252074675
  45      0.000037436799
  46     -0.000025472815
  47      0.000017245794
  48     -0.000049316303
  49      0.000015454009
  50      0.000193664341
  51      0.000010051270
  52     -0.000066737977
  53      0.000048946333
  54     -0.000027869093
  55      0.000076959617
  56      0.000003053326
  57      0.000020493337
  58      0.000271872733
  59      0.000007054673
  60     -0.000003887351
  61     -0.000001720899
  62     -0.000022950812
  63      0.000000444693
  64      0.000155090066
  65      0.000005858042
  66      0.000009461565
  67     -0.000004134249
  68     -0.000016032116
  69      0.000033657413
  70     -0.000021816411
  71      0.000070764531
  72      0.000001727417
  73      0.000014559889
  74     -0.000018945425
  75     -0.000023242037
  76      0.000079806161
  77     -0.000013368180
  78     -0.000002669920
  79     -0.000022164269
  80     -0.000011656532
  81      0.000030864564
  82      0.000000193815
  83      0.000000126440
  84     -0.000005025235
  85     -0.000010092764
  86      0.000022584592
  87      0.000003685411
  88     -0.000000694511
  89     -0.000005637774
 Ene=  -0.31453130949824E+02
 Spin= Alpha
 Occup=    0.481282
   1     -0.000014446511
   2     -0.000005729009
   3     -0.000004903658
   4     -0.000010132280
   5      0.000063463808
   6      0.000023628152
   7     -0.000023512218
   8     -0.000024877498
   9      0.000088413634
  10      0.157580722117
  11     -0.198164879624
  12     -0.330679617063
  13      0.000844211732
  14     -0.000961600673
  15     -0.001630324808
  16      0.002596803692
  17     -0.003295903528
  18     -0.005452879920
  19     -0.000819711159
  20      0.001009682453
  21      0.001643401301
  22      0.000002885220
  23     -0.000004460036
  24      0.000002621004
  25      0.000004997650
  26      0.000001406657
  27      0.000008219949
  28      0.000006129428
  29     -0.000004450501
  30     -0.000008858393
  31      0.000008191770
  32      0.000208524211
  33     -0.000244065308
  34     -0.000351895235
  35     -0.000018911886
  36     -0.000004559078
  37      0.000002534519
  38      0.000003650461
  39     -0.000007336350
  40     -0.000007774489
  41     -0.000001115938
  42     -0.000000073276
  43     -0.000005061396
  44     -0.000290302493
  45      0.000002675806
  46     -0.000003172971
  47      0.000000526705
  48     -0.000028725984
  49      0.000007497652
  50      0.000177187557
  51      0.000003262984
  52     -0.000001320167
  53     -0.000000146708
  54      0.000005538522
  55     -0.000008816990
  56     -0.000009220914
  57     -0.000044176002
  58      0.000280393181
  59     -0.000034952804
  60      0.000020970785
  61      0.000004064080
  62     -0.000010675730
  63     -0.000002949300
  64      0.000207300096
  65     -0.000033583185
  66     -0.000032941293
  67      0.000020097901
  68      0.000034788368
  69     -0.000069741600
  70      0.000002417202
  71      0.000005288744
  72     -0.000004193219
  73      0.000004964330
  74     -0.000011533731
  75      0.000006337455
  76     -0.000018713883
  77      0.000000371672
  78     -0.000003335826
  79     -0.000007430787
  80      0.000019259866
  81     -0.000069221881
  82      0.000018832937
  83     -0.000000558967
  84     -0.000016823292
  85      0.000014369427
  86     -0.000048606408
  87      0.000000953313
  88     -0.000012317911
  89     -0.000016234586
 Ene=  -0.31439930572987E+02
 Spin= Alpha
 Occup=    0.852903
   1     -0.000013023038
   2     -0.000005578674
   3     -0.000001559338
   4     -0.000008493462
   5      0.000055034822
   6      0.000019276441
   7     -0.000020401858
   8     -0.000022347925
   9      0.000080265583
  10      0.551480598766
  11      0.495986618247
  12      0.006711852250
  13      0.002873118158
  14      0.002422449485
  15      0.000021618996
  16      0.009021221182
  17      0.008144185504
  18      0.000117825700
  19     -0.002722526378
  20     -0.002400244845
  21     -0.000037294991
  22      0.000002844766
  23     -0.000005804181
  24     -0.000001732549
  25     -0.000027387713
  26     -0.000011640822
  27      0.000006231241
  28      0.000003603556
  29      0.000002040084
  30      0.000020978386
  31      0.000018245538
  32      0.000633399742
  33      0.000521684543
  34      0.000015247900
  35     -0.000003807602
  36      0.000001212576
  37      0.000019079695
  38      0.000008390174
  39     -0.000007004264
  40      0.000045186011
  41     -0.000011667022
  42     -0.000003350632
  43     -0.000018403302
  44     -0.000061318267
  45     -0.000004757523
  46      0.000013611145
  47     -0.000004165614
  48     -0.000014006845
  49     -0.000024034524
  50      0.000023175676
  51     -0.000001596240
  52      0.000017274589
  53     -0.000015018548
  54      0.000000077714
  55     -0.000030851312
  56     -0.000005089505
  57     -0.000026558733
  58      0.000054504206
  59     -0.000012978840
  60      0.000018269001
  61      0.000002864818
  62     -0.000012279829
  63     -0.000021852879
  64      0.000047597300
  65     -0.000017206279
  66     -0.000019073382
  67      0.000009646048
  68      0.000009035690
  69     -0.000045783170
  70      0.000023313391
  71     -0.000103899097
  72      0.000027186647
  73     -0.000013525657
  74      0.000016917824
  75     -0.000006048783
  76      0.000054833009
  77     -0.000017155204
  78      0.000023705078
  79     -0.000012744645
  80     -0.000003861400
  81      0.000046027212
  82     -0.000016431938
  83      0.000024216540
  84      0.000001939897
  85      0.000024236314
  86     -0.000117920785
  87      0.000033188794
  88     -0.000017626536
  89     -0.000013299780
 Ene=  -0.31439930572985E+02
 Spin= Alpha
 Occup=    0.147097
   1     -0.000004761657
   2     -0.000001996196
   3     -0.000000679454
   4     -0.000003018313
   5      0.000020041627
   6      0.000007085283
   7     -0.000007407198
   8     -0.000007901979
   9      0.000028807582
  10      0.155522716481
  11      0.115450243196
  12      0.007124384598
  13      0.000817627191
  14      0.000556523149
  15      0.000035400489
  16      0.002542964516
  17      0.001896427347
  18      0.000118139180
  19     -0.000770081134
  20     -0.000556164270
  21     -0.000036402569
  22      0.000001091467
  23     -0.000001732341
  24     -0.000000697114
  25     -0.000006923945
  26     -0.000002894904
  27      0.000002125541
  28      0.000000784320
  29      0.000000836589
  30      0.000004971820
  31      0.000005406315
  32      0.000181086547
  33      0.000118784688
  34      0.000010251383
  35     -0.000001241364
  36     -0.000000698239
  37      0.000005583388
  38      0.000002350145
  39     -0.000001994314
  40      0.000011350074
  41     -0.000003358280
  42     -0.000001325287
  43     -0.000007180305
  44     -0.000013954919
  45     -0.000002659928
  46      0.000004471466
  47     -0.000001757201
  48     -0.000002497179
  49     -0.000006693435
  50      0.000003229088
  51     -0.000000728602
  52      0.000007112208
  53     -0.000005860589
  54      0.000001275116
  55     -0.000011339990
  56     -0.000001703676
  57     -0.000008941396
  58      0.000011118234
  59     -0.000004629212
  60      0.000005491048
  61      0.000000926104
  62     -0.000002555781
  63     -0.000005759478
  64      0.000011943683
  65     -0.000005640582
  66     -0.000006247901
  67      0.000003228103
  68      0.000003962656
  69     -0.000015177946
  70      0.000007005908
  71     -0.000029688454
  72      0.000006882628
  73     -0.000003958007
  74      0.000004839463
  75     -0.000000480530
  76      0.000010557733
  77     -0.000003916314
  78      0.000006175607
  79     -0.000002644944
  80     -0.000000004287
  81      0.000008847772
  82     -0.000003766897
  83      0.000006285490
  84      0.000000234953
  85      0.000007100117
  86     -0.000032941618
  87      0.000008522030
  88     -0.000004900378
  89     -0.000003678102
 Ene=  -0.10227392508313E+02
 Spin= Alpha
 Occup=    0.999996
   1      0.000000102802
   2      0.000000822834
   3     -0.000065481612
   4     -0.000098946294
   5      0.000137191544
   6     -0.000061508131
   7      0.000411814201
   8      0.006579759586
   9     -0.000625765550
  10      0.000034831450
  11     -0.000023969651
  12      0.000012850386
  13     -0.000229648121
  14      0.000158990692
  15     -0.000088310255
  16      0.000577254600
  17     -0.000398000862
  18      0.000230380751
  19     -0.000436454093
  20      0.000305479678
  21     -0.000220663566
  22     -0.000075361434
  23      0.000066740322
  24     -0.000049860661
  25      0.000079505688
  26     -0.000196348627
  27      0.000333784234
  28     -0.000262493501
  29      0.000196424769
  30     -0.000330939038
  31      0.000819498646
  32      0.002465377921
  33     -0.001709110067
  34      0.001111733296
  35      0.000025208920
  36      0.000006327558
  37     -0.000002985453
  38     -0.000012961802
  39      0.000046092328
  40      0.000018719302
  41      0.000084960021
  42      0.513790546307
  43      0.027958498968
  44     -0.023232636144
  45     -0.000004123223
  46     -0.000064874022
  47      0.000820460975
  48      0.001374858840
  49     -0.001045226162
  50      0.001955873888
  51     -0.000021596038
  52      0.000428443989
  53     -0.000192031167
  54     -0.000445411326
  55      0.000950009639
  56      0.247429146802
  57      0.012637013215
  58     -0.005974640018
  59      0.000068302903
  60      0.000063975965
  61     -0.001309776343
  62      0.001439943195
  63     -0.001071440491
  64      0.001278205069
  65     -0.000924885254
  66     -0.000022090846
  67      0.000175443300
  68     -0.000143357711
  69      0.000339999475
  70     -0.002013403135
  71      0.004534922884
  72      0.001024010911
  73      0.001195862738
  74      0.000694253673
  75     -0.002008673632
  76      0.004545711652
  77     -0.000734258531
  78     -0.001481299136
  79      0.000475129808
  80     -0.000992542343
  81      0.002054398400
  82     -0.000375741428
  83     -0.000618063386
  84     -0.000176635792
  85     -0.000982284757
  86      0.002072943382
  87      0.000422137967
  88      0.000608158871
  89     -0.000074136898
 Ene=  -0.10227392508313E+02
 Spin= Alpha
 Occup=    0.000004
   1      0.000000001358
   2      0.000000001207
   3     -0.000000065598
   4     -0.000000094003
   5      0.000000129794
   6     -0.000000063121
   7      0.000000414189
   8      0.000006552251
   9     -0.000000614246
  10      0.000000004149
  11      0.000000009144
  12      0.000000049853
  13     -0.000000188336
  14      0.000000559787
  15      0.000000266995
  16      0.000000514470
  17     -0.000000489675
  18      0.000000593908
  19     -0.000000352636
  20      0.000000363884
  21     -0.000000628132
  22     -0.000000082847
  23      0.000000094061
  24     -0.000000102154
  25      0.000000049281
  26     -0.000000217657
  27      0.000000248009
  28     -0.000000579865
  29      0.000000421277
  30     -0.000000274535
  31      0.000000786529