[Molden Format]
[Title]
generated by TRESC, imaginary part1 of MOs of job Ni0-C2H4
 
[Atoms] AU
Ni   1  28    2.0327243480    6.6651129323   -0.4637853482
 C   2   6    4.4866582262    4.9116344944    1.3008835560
 C   3   6    4.8771137450    4.8741236186   -1.3947805326
 H   4   1    5.7310700770    6.0706468704    2.4997637439
 H   5   1    3.8369470533    3.1858198160    2.2645095603
 H   6   1    4.5308414173    3.1179949920   -2.4558991994
 H   7   1    6.4130479072    6.0088908466   -2.2212746715
[GTO]
  1 0
 s  6 1.0
    71074.8032110000        0.0049184150
    10672.0209410000        0.0200173975
     2428.1389007000        0.0784715325
      685.5359514800        0.2482002663
      223.1007286300        0.4665280195
       76.8420140400        0.3374151926
 s  1 1.0
      148.7112201600        1.0000000000
 s  1 1.0
       17.4591549900        1.0000000000
 s  1 1.0
        7.1625280700        1.0000000000
 s  1 1.0
       12.5561371300        1.0000000000
 s  1 1.0
        2.0735740500        1.0000000000
 s  1 1.0
        0.8538264100        1.0000000000
 s  1 1.0
        0.1053676600        1.0000000000
 s  1 1.0
        0.0381340900        1.0000000000
 p  5 1.0
      916.7360866200        0.0107030171
      216.0613991300        0.0711467350
       68.3839148200        0.2646675976
       24.5938439500        0.5093159720
        9.1392960200        0.3283291628
 p  1 1.0
        4.7193371700        1.0000000000
 p  1 1.0
        1.8161849200        1.0000000000
 p  1 1.0
        0.6784075100        1.0000000000
 d  4 1.0
       47.0938321100        0.0346401353
       13.1464639700        0.1833736831
        4.4170548900        0.4455621030
        1.4771565100        0.5627236040
 d  1 1.0
        0.4373592200        1.0000000000
 p  1 1.0
        0.1465880000        1.0000000000
 f  1 1.0
        2.1740000000        1.0000000000
 
  2 0
 s  5 1.0
     1238.4016938000        0.0059599745
      186.2900499200        0.0422621111
       42.2511763500        0.1866575214
       11.6765579300        0.4675815865
        3.5930506500        0.4422897287
 s  1 1.0
        0.4024514700        1.0000000000
 s  1 1.0
        0.1309018300        1.0000000000
 p  3 1.0
        9.4680970600        0.0570294585
        2.0103545100        0.3130471495
        0.5477100500        0.7605135301
 p  1 1.0
        0.1526861400        1.0000000000
 d  1 1.0
        0.8000000000        1.0000000000
 
  3 0
 s  5 1.0
     1238.4016938000        0.0059599745
      186.2900499200        0.0422621111
       42.2511763500        0.1866575214
       11.6765579300        0.4675815865
        3.5930506500        0.4422897287
 s  1 1.0
        0.4024514700        1.0000000000
 s  1 1.0
        0.1309018300        1.0000000000
 p  3 1.0
        9.4680970600        0.0570294585
        2.0103545100        0.3130471495
        0.5477100500        0.7605135301
 p  1 1.0
        0.1526861400        1.0000000000
 d  1 1.0
        0.8000000000        1.0000000000
 
  4 0
 s  3 1.0
       13.0107010000        0.0391282527
        1.9622572000        0.2855840539
        0.4445379600        0.7689908602
 s  1 1.0
        0.1219496200        1.0000000000
 p  1 1.0
        0.8000000000        1.0000000000
 
  5 0
 s  3 1.0
       13.0107010000        0.0391282527
        1.9622572000        0.2855840539
        0.4445379600        0.7689908602
 s  1 1.0
        0.1219496200        1.0000000000
 p  1 1.0
        0.8000000000        1.0000000000
 
  6 0
 s  3 1.0
       13.0107010000        0.0391282527
        1.9622572000        0.2855840539
        0.4445379600        0.7689908602
 s  1 1.0
        0.1219496200        1.0000000000
 p  1 1.0
        0.8000000000        1.0000000000
 
  7 0
 s  3 1.0
       13.0107010000        0.0391282527
        1.9622572000        0.2855840539
        0.4445379600        0.7689908602
 s  1 1.0
        0.1219496200        1.0000000000
 p  1 1.0
        0.8000000000        1.0000000000
 
[5D]
[7F]
[9G]
[MO]
 Ene=  -0.30448557026695E+03
 Spin= Alpha
 Occup=    1.000000
   1      0.797697590741
   2      0.040691821966
   3      0.028447271603
   4     -0.003081480474
   5     -0.009536189545
   6      0.001504410185
   7     -0.000678624504
   8      0.000232135634
   9     -0.000077215751
  10     -0.000000456359
  11     -0.000005307176
  12      0.000003594598
  13      0.000000082193
  14      0.000001256744
  15     -0.000000535643
  16      0.000000843096
  17      0.000005411560
  18     -0.000003326900
  19     -0.000001839813
  20     -0.000012886213
  21      0.000007643059
  22      0.000000659216
  23     -0.000000678202
  24      0.000000391444
  25     -0.000001695495
  26      0.000003242155
  27     -0.000002780943
  28      0.000001928280
  29     -0.000002184313
  30      0.000006266446
  31     -0.000014779437
  32      0.000008953723
  33      0.000056782116
  34     -0.000037806727
  35      0.000000081106
  36      0.000000149343
  37     -0.000000153138
  38     -0.000000046857
  39     -0.000000092040
  40     -0.000000076341
  41     -0.000000361908
  42      0.000000649020
  43     -0.000001496054
  44     -0.000074857979
  45      0.000002669225
  46      0.000003758222
  47     -0.000002657977
  48     -0.000003201922
  49      0.000021400642
  50     -0.000013617619
  51      0.000001776527
  52      0.000000348187
  53     -0.000000705882
  54      0.000001497396
  55     -0.000003452092
  56      0.000000511672
  57     -0.000001598419
  58     -0.000072480136
  59     -0.000001386994
  60      0.000004089585
  61     -0.000003926448
  62      0.000010742984
  63      0.000019213545
  64     -0.000013096644
  65      0.000001430725
  66     -0.000000578215
  67      0.000000168478
  68      0.000001463841
  69     -0.000003745346
  70      0.000005070683
  71      0.000016294009
  72      0.000000663822
  73     -0.000001513616
  74     -0.000001510489
  75      0.000005172005
  76      0.000016538591
  77      0.000000374983
  78      0.000000752875
  79      0.000001968260
  80      0.000004798139
  81      0.000016260817
  82     -0.000000953539
  83      0.000000512424
  84      0.000001302644
  85      0.000005257806
  86      0.000016184197
  87     -0.000000990437
  88     -0.000001745160
  89     -0.000001999228
 Ene=  -0.30448557026695E+03
 Spin= Alpha
 Occup=    0.000000
   1     -0.000005252238
   2     -0.000000267913
   3     -0.000000187250
   4      0.000000020334
   5      0.000000062688
   6     -0.000000009889
   7      0.000000004384
   8     -0.000000000798
   9      0.000000000225
  10      0.000000019618
  11      0.000000000370
  12      0.000000024470
  13     -0.000000027630
  14      0.000000000039
  15     -0.000000022091
  16      0.000000022154
  17     -0.000000000155
  18      0.000000015648
  19     -0.000000009264
  20      0.000000000220
  21     -0.000000006590
  22      0.000000000015
  23      0.000000000195
  24      0.000000004797
  25      0.000000000035
  26      0.000000000120
  27      0.000000000104
  28      0.000000000513
  29     -0.000000002225
  30     -0.000000000001
  31     -0.000000000021
  32      0.000000003003
  33     -0.000000000269
  34      0.000000001446
  35     -0.000000005204
  36      0.000000000303
  37     -0.000000002006
  38     -0.000000007145
  39     -0.000000005618
  40      0.000000000388
  41      0.000000001061
  42     -0.000000000092
  43      0.000000000376
  44     -0.000000003406
  45      0.000000000389
  46      0.000000000191
  47      0.000000000137
  48      0.000000000891
  49      0.000000001219
  50     -0.000000000549
  51      0.000000000329
  52      0.000000000387
  53      0.000000000228
  54      0.000000000175
  55      0.000000000473
  56      0.000000000124
  57     -0.000000000170
  58      0.000000003660
  59      0.000000000303
  60     -0.000000000079
  61     -0.000000000061
  62      0.000000000175
  63     -0.000000001441
  64      0.000000000363
  65     -0.000000000028
  66      0.000000000526
  67     -0.000000000184
  68     -0.000000000189
  69     -0.000000000007
  70     -0.000000000190
  71     -0.000000000077
  72      0.000000000280
  73      0.000000000195
  74      0.000000000192
  75      0.000000000332
  76      0.000000000390
  77     -0.000000000220
  78     -0.000000000126
  79      0.000000000139
  80     -0.000000000384
  81     -0.000000000199
  82     -0.000000000063
  83      0.000000000059
  84      0.000000000032
  85      0.000000000036
  86     -0.000000000139
  87      0.000000000209
  88     -0.000000000027
  89     -0.000000000091
 Ene=  -0.36676541461954E+02
 Spin= Alpha
 Occup=    1.000000
   1     -0.309391516475
   2     -0.118631491396
   3      0.683627302674
   4      0.431158329793
   5     -0.050717771334
   6      0.015682967133
   7     -0.001896838037
   8      0.000314246190
   9     -0.000150166546
  10     -0.000044444890
  11     -0.000221225987
  12      0.000140547892
  13      0.000000845835
  14      0.000006568598
  15     -0.000004350999
  16     -0.000002245773
  17     -0.000014403698
  18      0.000008307328
  19     -0.000001356408
  20     -0.000006214767
  21      0.000006871429
  22      0.000017095763
  23      0.000008972979
  24     -0.000022606702
  25      0.000073895690
  26     -0.000171727646
  27      0.000001224312
  28     -0.000004540214
  29      0.000008376492
  30     -0.000026850253
  31      0.000062798159
  32      0.000001795298
  33      0.000005687409
  34     -0.000004494589
  35     -0.000000417930
  36     -0.000000824734
  37      0.000000746285
  38      0.000000234791
  39      0.000000082189
  40      0.000000274288
  41      0.000000993165
  42     -0.000001461527
  43     -0.000007071427
  44     -0.000053279838
  45     -0.000001963095
  46     -0.000004179561
  47      0.000002900307
  48     -0.000024581958
  49      0.000003234521
  50     -0.000001245005
  51      0.000000262389
  52      0.000011105788
  53     -0.000008979524
  54      0.000006211537
  55     -0.000017081475
  56     -0.000001101892
  57     -0.000007993223
  58     -0.000047579127
  59      0.000000592130
  60     -0.000004273378
  61      0.000005890923
  62      0.000027030776
  63     -0.000004777165
  64      0.000001365618
  65     -0.000005055610
  66     -0.000007628272
  67      0.000003158712
  68      0.000009505580
  69     -0.000019388288
  70      0.000005914951
  71      0.000027974547
  72      0.000001904469
  73     -0.000002390788
  74     -0.000004302514
  75      0.000005545586
  76      0.000026760211
  77      0.000003910565
  78      0.000002824227
  79      0.000003455327
  80      0.000006505843
  81      0.000028098452
  82     -0.000001401092
  83      0.000004675112
  84      0.000005043730
  85      0.000005072410
  86      0.000026852711
  87     -0.000002801897
  88     -0.000000284815
  89     -0.000003805571
 Ene=  -0.36676541461954E+02
 Spin= Alpha
 Occup=    0.000000
   1     -0.000071129725
   2     -0.000027273630
   3      0.000157167847
   4      0.000099124155
   5     -0.000011660780
   6      0.000003605464
   7     -0.000000435619
   8      0.000000068455
   9     -0.000000033284
  10     -0.000008219469
  11     -0.000000055850
  12     -0.000002371589
  13      0.000001249196
  14      0.000000000781
  15      0.000000356463
  16     -0.000000844245
  17     -0.000000002207
  18     -0.000000238714
  19      0.000000350063
  20     -0.000000002757
  21      0.000000100538
  22     -0.000000003025
  23     -0.000000026302
  24     -0.000000037808
  25      0.000000013902
  26     -0.000000042002
  27      0.000000004024
  28      0.000000012859
  29      0.000000018398
  30     -0.000000005376
  31      0.000000016135
  32     -0.000000080388
  33      0.000000000260
  34     -0.000000021922
  35      0.000000029664
  36     -0.000000001852
  37      0.000000011509
  38      0.000000039627
  39      0.000000030566
  40     -0.000000002134
  41     -0.000000005538
  42      0.000000002465
  43      0.000000003437
  44     -0.000000061316
  45     -0.000000001645
  46      0.000000001107
  47     -0.000000001820
  48      0.000000030244
  49     -0.000000015823
  50     -0.000000004403
  51     -0.000000000176
  52     -0.000000004818
  53      0.000000000721
  54      0.000000000105
  55      0.000000000294
  56     -0.000000003224
  57     -0.000000007708
  58      0.000000041969
  59     -0.000000001249
  60     -0.000000004228
  61      0.000000003402
  62      0.000000045856
  63      0.000000002746
  64      0.000000006584
  65     -0.000000004942
  66     -0.000000007449
  67      0.000000003648
  68      0.000000005706
  69     -0.000000011232
  70      0.000000002318
  71      0.000000017505
  72     -0.000000004543
  73     -0.000000002297
  74      0.000000000950
  75     -0.000000002832
  76      0.000000003690
  77      0.000000000117
  78      0.000000000555
  79     -0.000000000784
  80      0.000000005833
  81      0.000000002090
  82     -0.000000002067
  83      0.000000003261
  84      0.000000000642
  85      0.000000000351
  86      0.000000000059
  87     -0.000000004185
  88      0.000000000291
  89     -0.000000002640
 Ene=  -0.32108013661703E+02
 Spin= Alpha
 Occup=    0.633877
   1      0.000031002939
   2      0.000011850622
   3      0.000035343458
   4      0.000079992583
   5     -0.000194998098
   6     -0.000109025720
   7      0.000098857865
   8      0.000070056220
   9     -0.000339361280
  10     -0.054242704250
  11     -0.059040099576
  12      0.544490671788
  13      0.000922740879
  14      0.000906900851
  15     -0.009534256053
  16     -0.001535885010
  17     -0.001727150604
  18      0.015407427468
  19      0.000574201134
  20      0.000762146379
  21     -0.005583374401
  22     -0.000005066397
  23     -0.000001928218
  24     -0.000001129473
  25     -0.000021201970
  26     -0.000007043043
  27     -0.000020718624
  28      0.000012208399
  29     -0.000002707681
  30      0.000041011960
  31     -0.000015101681
  32     -0.000151598067
  33     -0.000301585407
  34      0.001373704277
  35      0.000006370851
  36      0.000021497185
  37     -0.000003486985
  38     -0.000000228456
  39      0.000000844639
  40      0.000026567752
  41     -0.000001706022
  42      0.000017062906
  43      0.000105129552
  44     -0.000026561881
  45      0.000026085854
  46      0.000056626407
  47     -0.000026724822
  48      0.000086746125
  49     -0.000061679301
  50     -0.000002161922
  51      0.000010277860
  52     -0.000105808466
  53      0.000079168797
  54     -0.000059755261
  55      0.000131555860
  56      0.000015560672
  57      0.000095435278
  58      0.000096392802
  59     -0.000007141800
  60      0.000056136628
  61     -0.000023505525
  62     -0.000018712898
  63     -0.000039760821
  64     -0.000011423276
  65      0.000050777461
  66      0.000055972764
  67     -0.000033374361
  68     -0.000078834907
  69      0.000140247451
  70     -0.000025945991
  71      0.000030657388
  72     -0.000000885596
  73      0.000035376353
  74      0.000007910902
  75     -0.000062425074
  76      0.000232438028
  77     -0.000041021554
  78     -0.000040776270
  79      0.000021633452
  80     -0.000060370013
  81      0.000217973131
  82      0.000021168781
  83     -0.000046154659
  84      0.000022604385
  85     -0.000022973350
  86      0.000018818896
  87      0.000005027614
  88      0.000035512912
  89      0.000004761646
 Ene=  -0.32108013661701E+02
 Spin= Alpha
 Occup=    0.366123
   1     -0.000005819222
   2     -0.000002434687
   3     -0.000008519831
   4     -0.000018668839
   5      0.000041826839
   6      0.000024174217
   7     -0.000021838590
   8     -0.000017315331
   9      0.000075318423
  10     -0.205238831732
  11      0.001361193549
  12     -0.188734229882
  13      0.003553978625
  14      0.000017218781
  15      0.003314952149
  16     -0.005768597202
  17      0.000049420517
  18     -0.005335357877
  19      0.002073807528
  20     -0.000053909586
  21      0.001921514609
  22      0.000000406438
  23     -0.000001379671
  24      0.000002985358
  25      0.000009071489
  26      0.000002663596
  27      0.000007285874
  28      0.000005053496
  29     -0.000005984280
  30     -0.000016114944
  31      0.000002611616
  32     -0.000465527336
  33      0.000037801817
  34     -0.000461693747
  35     -0.000011041589
  36     -0.000001659618
  37     -0.000002236097
  38      0.000000717984
  39     -0.000004213054
  40     -0.000010781067
  41      0.000002222050
  42      0.000001490097
  43      0.000002726459
  44     -0.000353311020
  45      0.000002977012
  46      0.000005904088
  47     -0.000009306783
  48      0.000223537093
  49     -0.000035091022
  50      0.000019316673
  51      0.000003817396
  52     -0.000011390303
  53      0.000007246143
  54      0.000004908090
  55      0.000002612125
  56     -0.000008806417
  57     -0.000046944373
  58      0.000339808532
  59      0.000004186838
  60     -0.000035274308
  61      0.000017621973
  62      0.000252085493
  63     -0.000007703256
  64      0.000001510250
  65     -0.000033549767
  66     -0.000034384387
  67      0.000021847140
  68      0.000037943240
  69     -0.000068233158
  70     -0.000006331841
  71      0.000044804933
  72     -0.000021020047
  73     -0.000013973816
  74      0.000010879992
  75      0.000008543878
  76     -0.000037444701
  77     -0.000006083254
  78      0.000005459020
  79     -0.000012334178
  80      0.000025715666
  81     -0.000099315867
  82     -0.000021987416
  83      0.000028387738
  84     -0.000008477503
  85      0.000010007459
  86     -0.000019112021
  87     -0.000016096208
  88     -0.000009968594
  89     -0.000009545025
 Ene=  -0.31453130476265E+02
 Spin= Alpha
 Occup=    0.417905
   1     -0.000038430030
   2     -0.000015077314
   3     -0.000009407950
   4     -0.000024094632
   5      0.000162321195
   6      0.000059794590
   7     -0.000059911455
   8     -0.000059775049
   9      0.000225110212
  10      0.092431831260
  11      0.370587900990
  12     -0.335050447076
  13      0.000473732405
  14      0.001947477091
  15     -0.001687450864
  16      0.001527755453
  17      0.006128303963
  18     -0.005560114983
  19     -0.000474055125
  20     -0.001933873247
  21      0.001727017013
  22      0.000009751232
  23     -0.000002148612
  24      0.000000503427
  25      0.000003298553
  26      0.000001459084
  27      0.000014638873
  28     -0.000005703280
  29      0.000003353554
  30     -0.000011859182
  31      0.000020622464
  32      0.000117131674
  33      0.000503484039
  34     -0.000434024186
  35     -0.000008828331
  36     -0.000025818682
  37      0.000015388161
  38      0.000004849772
  39     -0.000005395306
  40     -0.000006684606
  41     -0.000007997003
  42     -0.000012031169
  43     -0.000064766133
  44      0.000007751306
  45     -0.000017777075
  46     -0.000036947435
  47      0.000024786376
  48     -0.000047190530
  49      0.000025393163
  50     -0.000011562794
  51     -0.000007760850
  52      0.000069515663
  53     -0.000052121557
  54      0.000033695850
  55     -0.000089893722
  56     -0.000011476354
  57     -0.000061289604
  58     -0.000037371591
  59      0.000005508388
  60     -0.000038330677
  61      0.000023437933
  62      0.000020627842
  63      0.000013677421
  64     -0.000004760169
  65     -0.000036249256
  66     -0.000039593483
  67      0.000022303286
  68      0.000047212676
  69     -0.000098391825
  70      0.000026574935
  71     -0.000077173541
  72      0.000011119365
  73     -0.000003224914
  74     -0.000011929773
  75      0.000029078963
  76     -0.000094514498
  77      0.000015609067
  78      0.000012836645
  79      0.000001798865
  80      0.000028321873
  81     -0.000087730358
  82     -0.000009048853
  83      0.000014647535
  84      0.000001312725
  85      0.000024733488
  86     -0.000074517249
  87     -0.000009130648
  88     -0.000000370501
  89     -0.000011249924
 Ene=  -0.31453130476263E+02
 Spin= Alpha
 Occup=    0.582095
   1      0.000007441366
   2      0.000002473235
   3      0.000000224457
   4      0.000001751129
   5     -0.000025790939
   6     -0.000008319117
   7      0.000008247603
   8      0.000005724581
   9     -0.000029988545
  10     -0.560110357783
  11     -0.005687828856
  12     -0.016054476009
  13     -0.002775735857
  14     -0.000027385845
  15     -0.000050683697
  16     -0.009238243005
  17     -0.000102079729
  18     -0.000271178269
  19      0.002794162421
  20      0.000039773857
  21      0.000072120768
  22     -0.000002760296
  23     -0.000005345567
  24      0.000003508175
  25      0.000003043859
  26      0.000000159641
  27      0.000001794985
  28      0.000013543940
  29     -0.000009030830
  30     -0.000002909648
  31     -0.000001810651
  32     -0.000609425071
  33     -0.000022354833
  34     -0.000008837189
  35     -0.000021817076
  36      0.000012504830
  37     -0.000006295651
  38      0.000002126042
  39     -0.000007445984
  40     -0.000003751382
  41      0.000003572439
  42      0.000008580175
  43      0.000039247627
  44     -0.000441578856
  45      0.000013681848
  46      0.000031035274
  47     -0.000022212848
  48      0.000300072569
  49     -0.000062449073
  50      0.000018200810
  51      0.000010502632
  52     -0.000052333113
  53      0.000037424677
  54     -0.000016696058
  55      0.000051479199
  56     -0.000005541813
  57     -0.000022057086
  58      0.000448383193
  59      0.000002144409
  60     -0.000024454271
  61      0.000014981990
  62      0.000296218472
  63     -0.000026825819
  64     -0.000002291925
  65     -0.000024226398
  66     -0.000020913151
  67      0.000014013473
  68      0.000017401449
  69     -0.000033827367
  70     -0.000014612997
  71      0.000058425657
  72     -0.000024322175
  73     -0.000002131839
  74      0.000015365286
  75     -0.000012474778
  76      0.000045591744
  77     -0.000023429652
  78     -0.000010039249
  79     -0.000004796468
  80      0.000007446739
  81     -0.000035172661
  82     -0.000018215790
  83      0.000016148239
  84     -0.000000277000
  85      0.000004609087
  86     -0.000024604745
  87     -0.000018241382
  88      0.000003783988
  89     -0.000011119390
 Ene=  -0.31439930192930E+02
 Spin= Alpha
 Occup=    0.914669
   1     -0.000031819136
   2     -0.000012766388
   3     -0.000004581795
   4     -0.000019791189
   5      0.000132332474
   6      0.000045237280
   7     -0.000047584150
   8     -0.000048405485
   9      0.000183897535
  10     -0.034282717608
  11      0.118997604731
  12     -0.592686217833
  13     -0.000162933276
  14      0.000833999338
  15     -0.003132258927
  16     -0.000558247270
  17      0.001906052765
  18     -0.009687334353
  19      0.000156252649
  20     -0.000651368697
  21      0.002939781550
  22      0.000008377885
  23     -0.000000647615
  24      0.000002363244
  25      0.000016902823
  26      0.000007013683
  27      0.000012449016
  28     -0.000004639332
  29      0.000000297879
  30     -0.000022379500
  31      0.000011568202
  32     -0.000023510609
  33      0.000201810684
  34     -0.000696233098
  35     -0.000013005161
  36     -0.000025576547
  37      0.000006520209
  38      0.000001376208
  39     -0.000004591985
  40     -0.000029694464
  41     -0.000002512607
  42     -0.000008895012
  43     -0.000048086691
  44     -0.000060407183
  45     -0.000013211145
  46     -0.000028823209
  47      0.000013959215
  48      0.000007467402
  49      0.000018639998
  50      0.000003949323
  51     -0.000004875906
  52      0.000050920573
  53     -0.000037584488
  54      0.000030661425
  55     -0.000065417080
  56     -0.000010628014
  57     -0.000054164781
  58      0.000035620663
  59      0.000004732211
  60     -0.000038689185
  61      0.000018657929
  62      0.000063793356
  63      0.000013689443
  64      0.000005214369
  65     -0.000034132030
  66     -0.000035769179
  67      0.000021182913
  68      0.000047724438
  69     -0.000085839023
  70      0.000012529404
  71     -0.000015526167
  72     -0.000002264402
  73     -0.000016893043
  74     -0.000002201538
  75      0.000029762437
  76     -0.000112770033
  77      0.000016848155
  78      0.000019142348
  79     -0.000010706276
  80      0.000032338908
  81     -0.000119621680
  82     -0.000014206128
  83      0.000026475246
  84     -0.000010448595
  85      0.000014481946
  86     -0.000024474773
  87     -0.000006921453
  88     -0.000015571068
  89     -0.000005405005
 Ene=  -0.31439930192928E+02
 Spin= Alpha
 Occup=    0.085331
   1      0.000001511614
   2      0.000000483094
   3     -0.000000004136
   4      0.000000144615
   5     -0.000004950210
   6     -0.000001605713
   7      0.000001538846
   8      0.000000849304
   9     -0.000005378442
  10     -0.147249830021
  11      0.009932602189
  12      0.003317162387
  13     -0.000798296046
  14      0.000051855039
  15      0.000018998431
  16     -0.002392916829
  17      0.000160686939
  18      0.000054839926
  19      0.000718662392
  20     -0.000046457096
  21     -0.000017546445
  22     -0.000000616197
  23     -0.000001296965
  24      0.000001220274
  25      0.000000258497
  26     -0.000000230579
  27      0.000000634696
  28      0.000003429725
  29     -0.000002504191
  30     -0.000000374168
  31     -0.000000016245
  32     -0.000156284420
  33      0.000007641937
  34      0.000005341834
  35     -0.000005984743
  36      0.000003266933
  37     -0.000001347936
  38      0.000000573376
  39     -0.000002194697
  40     -0.000000126438
  41      0.000000765833
  42      0.000002085665
  43      0.000009480478
  44     -0.000114892748
  45      0.000003385393
  46      0.000007793056
  47     -0.000005406910
  48      0.000077544526
  49     -0.000016180129
  50      0.000004233116
  51      0.000002667445
  52     -0.000012905873
  53      0.000009168989
  54     -0.000004163760
  55      0.000012356202
  56     -0.000001549646
  57     -0.000006370272
  58      0.000116407329
  59      0.000000623889
  60     -0.000006724714
  61      0.000004307483
  62      0.000077257065
  63     -0.000007148089
  64     -0.000001030352
  65     -0.000006719006
  66     -0.000005894396
  67      0.000003878443
  68      0.000004838289
  69     -0.000009942618
  70     -0.000003236705
  71      0.000012858631
  72     -0.000005922114
  73     -0.000000074375
  74      0.000003662950
  75     -0.000003187553
  76      0.000012374220
  77     -0.000006200308
  78     -0.000002851239
  79     -0.000000793946
  80      0.000001946498
  81     -0.000008618139
  82     -0.000004692452
  83      0.000003934340
  84      0.000000361458
  85      0.000001719468
  86     -0.000008736350
  87     -0.000004981724
  88      0.000001569102
  89     -0.000003222715
 Ene=  -0.10227392197429E+02
 Spin= Alpha
 Occup=    0.999995
   1      0.000000013988
   2     -0.000000893984
   3      0.000063911740
   4      0.000094107036
   5     -0.000131997740
   6      0.000057557577
   7     -0.000390140607
   8     -0.006235928705
   9      0.000593081037
  10     -0.000012148571
  11     -0.000033019102
  12      0.000022711353
  13      0.000083467480
  14      0.000217747399
  15     -0.000150793719
  16     -0.000218080568
  17     -0.000547152088
  18      0.000377218079
  19      0.000208872693
  20      0.000413690605
  21     -0.000289550837
  22      0.000071437872
  23     -0.000063210090
  24      0.000047198860
  25     -0.000075380644
  26      0.000186083614
  27     -0.000316383453
  28      0.000248601143
  29     -0.000186057620
  30      0.000313637794
  31     -0.000776690110
  32     -0.001052568282
  33     -0.002336697243
  34      0.001619814467
  35     -0.000023863391
  36     -0.000006015275
  37      0.000002836014
  38      0.000012269682
  39     -0.000043641142
  40     -0.000017738418
  41     -0.000080528016
  42     -0.486739635453
  43     -0.026485878244
  44      0.022005586929
  45     -0.000777924276
  46      0.000004111684
  47      0.000061357260
  48     -0.001851605451
  49     -0.001303275376
  50      0.000990614474
  51      0.000021046618
  52     -0.000406034310
  53      0.000181935584
  54      0.000421953927
  55     -0.000899943384
  56     -0.234693729958
  57     -0.011987852511
  58      0.005675183015
  59      0.001240930111
  60     -0.000064857683
  61     -0.000060530090
  62     -0.001209378245
  63     -0.001364998697
  64      0.001015491937
  65      0.000876065244
  66      0.000021286575
  67     -0.000166467368
  68      0.000135995853
  69     -0.000322593983
  70      0.001907415421
  71     -0.004296076888
  72     -0.000657587157
  73     -0.000970018271
  74     -0.001132932582
  75      0.001902930757
  76     -0.004306300986
  77     -0.000450003182
  78      0.000695638094
  79      0.001403235344
  80      0.000941420344
  81     -0.001948853339
  82      0.000167736429
  83      0.000356242897
  84      0.000586412374
  85      0.000931695559
  86     -0.001966434996
  87      0.000070513474
  88     -0.000400631801
  89     -0.000576797893
 Ene=  -0.10227392197429E+02
 Spin= Alpha
 Occup=    0.000005
   1     -0.000000001117
   2     -0.000000001880
   3      0.000000102864
   4      0.000000144209
   5     -0.000000203151
   6      0.000000091673
   7     -0.000000619006
   8     -0.000009851588
   9      0.000000929727
  10     -0.000000051506
  11     -0.000000021362
  12      0.000000012851
  13     -0.000000170787
  14      0.000000302906
  15     -0.000000433609
  16     -0.000000719405
  17     -0.000000802788
  18      0.000000638078
  19      0.000000746222
  20      0.000000570126
  21     -0.000000480339
  22      0.000000120770
  23     -0.000000125626
  24      0.000000120981
  25     -0.000000088673
  26      0.000000304653
  27     -0.000000414862
  28      0.000000709512
  29     -0.000000517109
  30      0.000000439531
  31     -0.000001192472