[Molden Format]
[Title]
generated by TRESC, imaginary part2 of MOs of job Ni0-C2H4
 
[Atoms] AU
Ni   1  28    2.0327243480    6.6651129323   -0.4637853482
 C   2   6    4.4866582262    4.9116344944    1.3008835560
 C   3   6    4.8771137450    4.8741236186   -1.3947805326
 H   4   1    5.7310700770    6.0706468704    2.4997637439
 H   5   1    3.8369470533    3.1858198160    2.2645095603
 H   6   1    4.5308414173    3.1179949920   -2.4558991994
 H   7   1    6.4130479072    6.0088908466   -2.2212746715
[GTO]
  1 0
 s  6 1.0
    71074.8032110000        0.0049184150
    10672.0209410000        0.0200173975
     2428.1389007000        0.0784715325
      685.5359514800        0.2482002663
      223.1007286300        0.4665280195
       76.8420140400        0.3374151926
 s  1 1.0
      148.7112201600        1.0000000000
 s  1 1.0
       17.4591549900        1.0000000000
 s  1 1.0
        7.1625280700        1.0000000000
 s  1 1.0
       12.5561371300        1.0000000000
 s  1 1.0
        2.0735740500        1.0000000000
 s  1 1.0
        0.8538264100        1.0000000000
 s  1 1.0
        0.1053676600        1.0000000000
 s  1 1.0
        0.0381340900        1.0000000000
 p  5 1.0
      916.7360866200        0.0107030171
      216.0613991300        0.0711467350
       68.3839148200        0.2646675976
       24.5938439500        0.5093159720
        9.1392960200        0.3283291628
 p  1 1.0
        4.7193371700        1.0000000000
 p  1 1.0
        1.8161849200        1.0000000000
 p  1 1.0
        0.6784075100        1.0000000000
 d  4 1.0
       47.0938321100        0.0346401353
       13.1464639700        0.1833736831
        4.4170548900        0.4455621030
        1.4771565100        0.5627236040
 d  1 1.0
        0.4373592200        1.0000000000
 p  1 1.0
        0.1465880000        1.0000000000
 f  1 1.0
        2.1740000000        1.0000000000
 
  2 0
 s  5 1.0
     1238.4016938000        0.0059599745
      186.2900499200        0.0422621111
       42.2511763500        0.1866575214
       11.6765579300        0.4675815865
        3.5930506500        0.4422897287
 s  1 1.0
        0.4024514700        1.0000000000
 s  1 1.0
        0.1309018300        1.0000000000
 p  3 1.0
        9.4680970600        0.0570294585
        2.0103545100        0.3130471495
        0.5477100500        0.7605135301
 p  1 1.0
        0.1526861400        1.0000000000
 d  1 1.0
        0.8000000000        1.0000000000
 
  3 0
 s  5 1.0
     1238.4016938000        0.0059599745
      186.2900499200        0.0422621111
       42.2511763500        0.1866575214
       11.6765579300        0.4675815865
        3.5930506500        0.4422897287
 s  1 1.0
        0.4024514700        1.0000000000
 s  1 1.0
        0.1309018300        1.0000000000
 p  3 1.0
        9.4680970600        0.0570294585
        2.0103545100        0.3130471495
        0.5477100500        0.7605135301
 p  1 1.0
        0.1526861400        1.0000000000
 d  1 1.0
        0.8000000000        1.0000000000
 
  4 0
 s  3 1.0
       13.0107010000        0.0391282527
        1.9622572000        0.2855840539
        0.4445379600        0.7689908602
 s  1 1.0
        0.1219496200        1.0000000000
 p  1 1.0
        0.8000000000        1.0000000000
 
  5 0
 s  3 1.0
       13.0107010000        0.0391282527
        1.9622572000        0.2855840539
        0.4445379600        0.7689908602
 s  1 1.0
        0.1219496200        1.0000000000
 p  1 1.0
        0.8000000000        1.0000000000
 
  6 0
 s  3 1.0
       13.0107010000        0.0391282527
        1.9622572000        0.2855840539
        0.4445379600        0.7689908602
 s  1 1.0
        0.1219496200        1.0000000000
 p  1 1.0
        0.8000000000        1.0000000000
 
  7 0
 s  3 1.0
       13.0107010000        0.0391282527
        1.9622572000        0.2855840539
        0.4445379600        0.7689908602
 s  1 1.0
        0.1219496200        1.0000000000
 p  1 1.0
        0.8000000000        1.0000000000
 
[5D]
[7F]
[9G]
[MO]
 Ene=   0.84705728990268E+00
 Spin= Alpha
 Occup=    0.000000
   1      0.000031401297
   2      0.000013553545
   3     -0.000042915054
   4      0.000075746738
   5     -0.000181636395
   6      0.000071867391
   7      0.000792399020
   8      0.014887865724
   9     -0.002496482174
  10      0.009446372590
  11     -0.001401150947
  12      0.000026332365
  13     -0.008659420767
  14      0.001349309078
  15     -0.000083333610
  16     -0.027859495130
  17      0.003808324832
  18      0.000156344859
  19      0.027378517425
  20     -0.003113018274
  21     -0.000472842412
  22     -0.033035856567
  23     -0.119935047218
  24      0.078251170644
  25      0.015977357892
  26     -0.012656410294
  27     -0.009710814714
  28     -0.032770832690
  29      0.024885798449
  30      0.005499257563
  31     -0.004727010440
  32     -0.885751587759
  33      0.134857140589
  34     -0.017130073013
  35      0.001023138122
  36     -0.000831408251
  37      0.000837767995
  38     -0.001339322906
  39      0.003426642180
  40      0.000179802596
  41     -0.000718319298
  42      0.125016228300
  43     -1.289642290544
  44      7.372362850903
  45      0.337577406411
  46      0.084703320056
  47     -0.084072959383
  48     -2.658279755148
  49      0.124206742600
  50      0.154171285908
  51      0.063636382452
  52     -0.034215653947
  53      0.005529881600
  54      0.036376417778
  55     -0.082241559922
  56     -0.125758153018
  57      1.299269073459
  58     -7.403057351342
  59      0.297059397504
  60     -0.176644084040
  61      0.092912083908
  62     -2.574025306137
  63      0.637130288847
  64     -0.232524181303
  65     -0.076455683065
  66     -0.011951840376
  67      0.024391998237
  68     -0.031126600107
  69      0.076799579343
  70     -0.451855954424
  71     -0.349678808817
  72      0.012969666729
  73     -0.019949695663
  74     -0.045616693836
  75     -0.441674690104
  76     -0.342682297738
  77      0.019981805351
  78      0.034905359617
  79      0.033432893217
  80      0.444833904140
  81      0.346844373867
  82      0.010313080615
  83     -0.038630841780
  84     -0.033939348015
  85      0.456964596852
  86      0.355998902036
  87      0.016679820271
  88      0.015475139734
  89      0.046357011296
 Ene=   0.11183238012367E+01
 Spin= Alpha
 Occup=    0.000000
   1     -0.000009514596
   2     -0.000004488799
   3      0.000054531316
   4      0.000075733251
   5     -0.000041994518
   6     -0.000212669523
   7      0.000099632180
   8      0.000097270064
   9      0.000089101307
  10     -0.000010217323
  11      0.000029388387
  12     -0.000025413805
  13      0.000091991529
  14     -0.000023622765
  15      0.000015506164
  16      0.000053897231
  17     -0.000105342638
  18      0.000077478808
  19     -0.000442386691
  20      0.000113261908
  21     -0.000034322443
  22     -0.000156495274
  23      0.000014452120
  24      0.000420248797
  25     -0.000515370276
  26     -0.000041902895
  27      0.000430507316
  28      0.000707448799
  29     -0.002067622971
  30      0.000738678891
  31     -0.000056881240
  32      0.001882134111
  33     -0.000037559117
  34     -0.000189048834
  35      0.000006688552
  36     -0.000001039134
  37      0.000003565179
  38      0.000008029203
  39      0.000011354514
  40      0.000002159977
  41     -0.000000709366
  42      0.000045852322
  43      0.000763105635
  44     -0.007938896240
  45      0.000290118010
  46      0.000267408918
  47     -0.000457644151
  48      0.002061035668
  49      0.001330351804
  50      0.001740457502
  51     -0.000065721190
  52      0.000126563496
  53     -0.000072009573
  54     -0.000404268654
  55     -0.000205868710
  56      0.000022784239
  57     -0.001054108711
  58      0.007627712519
  59      0.000174231493
  60      0.000107543569
  61      0.000140106715
  62      0.001704032919
  63     -0.002138041611
  64     -0.001721442324
  65     -0.000047932900
  66     -0.000145234661
  67     -0.000143748657
  68     -0.000072616562
  69     -0.000126148006
  70      0.000125786850
  71     -0.000079549412
  72      0.000104464417
  73     -0.000198297124
  74      0.000249004998
  75      0.001190188532
  76      0.001238100782
  77      0.000024772563
  78      0.000591001970
  79     -0.000285644431
  80     -0.001190334353
  81     -0.001286613873
  82      0.000220016790
  83     -0.000116235646
  84     -0.000036144124
  85      0.000040971030
  86      0.000218856518
  87     -0.000118983607
  88     -0.000065946788
  89     -0.000090784717
 Ene=   0.11183238012367E+01
 Spin= Alpha
 Occup=    0.000000
   1     -0.000083143977
   2     -0.000039125495
   3      0.000472023052
   4      0.000654614259
   5     -0.000361108881
   6     -0.001802242390
   7      0.000779333471
   8      0.000629935904
   9      0.000654772253
  10      0.000012998392
  11      0.000033157687
  12     -0.000666391843
  13      0.000001207931
  14      0.000153801383
  15      0.000639262262
  16     -0.000101671598
  17     -0.000562832837
  18      0.001608104267
  19      0.000179704898
  20      0.000831387436
  21     -0.000525511140
  22     -0.002064936476
  23     -0.004719550960
  24     -0.002710280255
  25     -0.036854752140
  26     -0.013606854479
  27      0.002710182398
  28      0.006247883510
  29      0.003351904783
  30      0.049699056701
  31      0.014395766388
  32     -0.000295126431
  33     -0.000608008189
  34     -0.005136004128
  35      0.000002989592
  36      0.000016070386
  37      0.000024550123
  38      0.000049010422
  39     -0.000008089700
  40      0.000299849219
  41     -0.000025156030
  42      0.000295379028
  43     -0.001360399374
  44     -0.000472664729
  45      0.000569313591
  46      0.001340269030
  47     -0.002363718273
  48     -0.001503395945
  49     -0.005099814602
  50     -0.005594668614
  51      0.000502882287
  52      0.003340222380
  53      0.006318102275
  54     -0.023844136276
  55     -0.011503948510
  56      0.000349983313
  57     -0.001410476088
  58     -0.002058658693
  59     -0.000202071982
  60      0.001541739768
  61     -0.002550797111
  62     -0.000328804284
  63     -0.004841531567
  64     -0.005507030179
  65     -0.002351068560
  66     -0.009306337610
  67     -0.010047757215
  68     -0.021686022774
  69     -0.009418157035
  70      0.003971447786
  71      0.004418862767
  72      0.009071323892
  73     -0.017519098831
  74      0.010590525147
  75     -0.003335534627
  76     -0.003822953850
  77     -0.009193392273
  78      0.018535845152
  79     -0.011500978691
  80     -0.003176515482
  81     -0.003717474894
  82      0.014429438108
  83      0.015192577426
  84     -0.011098634587
  85      0.004078824401
  86      0.004301482135
  87     -0.014007534831
  88     -0.014173269481
  89      0.010234092082
 Ene=   0.12219155107539E+01
 Spin= Alpha
 Occup=    0.000000
   1      0.000055890355
   2      0.000027499775
   3     -0.000443971667
   4     -0.000741517580
   5      0.000536596378
   6      0.001850501944
   7     -0.001883092774
   8      0.012781189400
   9     -0.001331696992
  10      0.000476921485
  11     -0.000453206806
  12      0.000395820721
  13     -0.001092361182
  14      0.000346357035
  15     -0.000454033587
  16     -0.001586721199
  17      0.001834404579
  18     -0.001542297811
  19      0.004216146529
  20     -0.002498376040
  21      0.002553797728
  22     -0.004021572652
  23      0.001595139787
  24      0.002742137669
  25      0.000013313744
  26     -0.001119894286
  27      0.005514149929
  28     -0.001768844160
  29     -0.006734346468
  30      0.000395051921
  31      0.001184687826
  32      0.001003225695
  33      0.006346858496
  34     -0.004758476526
  35      0.000013011686
  36      0.000028495877
  37     -0.000011663735
  38      0.000031004589
  39      0.000015627755
  40     -0.000002527820
  41      0.000012355895
  42     -0.000537934632
  43      0.007353944368
  44     -0.027830098969
  45     -0.000343859840
  46     -0.001306133429
  47      0.000164307740
  48      0.005434127260
  49      0.006806552974
  50      0.003760850629
  51     -0.000751128735
  52     -0.001701879094
  53      0.000863049281
  54     -0.000310070253
  55     -0.000129778729
  56     -0.000583355356
  57      0.003170474921
  58      0.003922715278
  59      0.000684613681
  60     -0.002031446047
  61      0.002102561057
  62      0.003349213910
  63      0.000409863158
  64     -0.009448938421
  65      0.000760428327
  66      0.002146415076
  67     -0.001439411511
  68     -0.000143164958
  69      0.001424693894
  70      0.000762757085
  71      0.000935544408
  72     -0.000266616369
  73     -0.000300169069
  74      0.001554029924
  75      0.004000516351
  76      0.005195247963
  77      0.000173334619
  78      0.000591106894
  79     -0.000588450744
  80     -0.002080431573
  81     -0.002427095808
  82      0.000592791794
  83     -0.003091697284
  84      0.000364908130
  85      0.001263539865
  86      0.002213012173
  87      0.000761685249
  88      0.000005644139
  89      0.000246564866
 Ene=   0.12219155107543E+01
 Spin= Alpha
 Occup=    0.000000
   1      0.001736863094
   2      0.000854651899
   3     -0.013805232120
   4     -0.023062151774
   5      0.016694639072
   6      0.057536651241
   7     -0.058581304675
   8      0.398354363046
   9     -0.041607208493
  10     -0.002182975648
  11     -0.013075128096
  12      0.009796461979
  13      0.001574226711
  14      0.008922431206
  15     -0.008345936408
  16      0.008972497289
  17      0.053535247860
  18     -0.039478463622
  19     -0.012086893937
  20     -0.070121884795
  21      0.056652299799
  22     -0.127430808061
  23      0.034944362262
  24     -0.007150301894
  25      0.006350790669
  26     -0.020374887159
  27      0.169604160295
  28     -0.044636252934
  29      0.006682688404
  30      0.002713497032
  31      0.002853539110
  32      0.031075430986
  33      0.203215722897
  34     -0.139800268278
  35      0.000280651331
  36      0.000681318030
  37     -0.000453726488
  38     -0.000159910973
  39      0.000213227187
  40      0.000094547492
  41      0.000421546033
  42     -0.017499448234
  43      0.163464044976
  44     -0.366541533053
  45     -0.025754766817
  46     -0.047986963589
  47      0.033984047421
  48      0.038633237721
  49      0.126999603163
  50     -0.087347336958
  51     -0.018579638824
  52     -0.060658857283
  53      0.042444108544
  54      0.001888459760
  55      0.011345940192
  56     -0.017476310177
  57      0.165047181725
  58     -0.380389835596
  59      0.009775142714
  60     -0.052776480328
  61      0.034291047596
  62     -0.001408916782
  63      0.133639432497
  64     -0.088740441731
  65      0.013951440283
  66      0.059196648642
  67     -0.037688450850
  68     -0.015400850731
  69      0.024353102401
  70      0.030642383887
  71      0.046638734728
  72     -0.016511693793
  73     -0.003304791700
  74      0.030084388294
  75      0.030180288270
  76      0.045380365679
  77     -0.019240287989
  78     -0.031462868043
  79     -0.004836563953
  80      0.031287355371
  81      0.046006174799
  82      0.010333540470
  83     -0.034861599940
  84     -0.005530293320
  85      0.031658982338
  86      0.047901812490
  87      0.013507045950
  88     -0.008302580927
  89      0.030966902238
 Ene=   0.12672313454163E+01
 Spin= Alpha
 Occup=    0.000000
   1     -0.000356705567
   2     -0.000175257011
   3      0.002798714145
   4      0.004639946084
   5     -0.003335347233
   6     -0.011581287756
   7      0.010651134289
   8     -0.032922220842
   9      0.004065316844
  10      0.000978115522
  11      0.002601797103
  12     -0.001498302890
  13     -0.001495279001
  14     -0.001847399566
  15      0.000792051670
  16     -0.003802218089
  17     -0.011144837750
  18      0.006596001623
  19      0.007719912688
  20      0.015674554891
  21     -0.008597755401
  22     -0.017598625097
  23     -0.000630208670
  24     -0.003658172884
  25     -0.006182806947
  26      0.015469247463
  27      0.026400151091
  28      0.001469413936
  29      0.008710384719
  30      0.007523711951
  31     -0.018678692407
  32     -0.006335579422
  33     -0.019239974248
  34      0.012600805119
  35     -0.000025372956
  36     -0.000038954672
  37      0.000006647193
  38     -0.000047905661
  39     -0.000081301103
  40     -0.000024027951
  41     -0.000154160928
  42      0.000585432474
  43     -0.003216758343
  44      0.006637722297
  45      0.002189121910
  46      0.006669270255
  47     -0.003198994777
  48     -0.010499730270
  49     -0.021211419080
  50      0.000145304762
  51     -0.002820198696
  52      0.007167149702
  53     -0.004702627050
  54      0.003522309427
  55     -0.005448561014
  56      0.000657627680
  57     -0.004299465284
  58      0.009604115551
  59     -0.000368918215
  60      0.005683571861
  61     -0.004724502744
  62      0.006581749035
  63     -0.008135294067
  64      0.018199066182
  65     -0.005452748115
  66     -0.003337552578
  67      0.002641344306
  68      0.002276381986
  69     -0.007056135143
  70      0.004575792472
  71      0.007841230308
  72     -0.000052818499
  73      0.008061662421
  74     -0.006922736806
  75     -0.000957247432
  76      0.000284011704
  77     -0.000833155193
  78      0.002508263441
  79     -0.002698292136
  80      0.003762815524
  81      0.006364763838
  82      0.002949599861
  83      0.007284995143
  84     -0.003889834638
  85     -0.001091396551
  86     -0.000163225849
  87      0.002480925307
  88      0.003752767020
  89     -0.001605030664
 Ene=   0.12672313454166E+01
 Spin= Alpha
 Occup=    0.000000
   1     -0.007133935813
   2     -0.003504929653
   3      0.055956992122
   4      0.092759304787
   5     -0.066668320627
   6     -0.231547992665
   7      0.212876740148
   8     -0.656955752186
   9      0.081116758274
  10      0.008017726211
  11      0.051411968317
  12     -0.033542137492
  13     -0.005497044358
  14     -0.036234269775
  15      0.022609451251
  16     -0.034635000235
  17     -0.220688202414
  18      0.144613954983
  19      0.048422009923
  20      0.310528298543
  21     -0.200804416330
  22     -0.335047683434
  23      0.060691117275
  24      0.033099136023
  25     -0.131024609901
  26      0.296608022736
  27      0.499820972193
  28     -0.097295184779
  29     -0.037091168199
  30      0.158329657720
  31     -0.350121562554
  32     -0.057677207997
  33     -0.389783244819
  34      0.258905837826
  35     -0.000259576755
  36     -0.000642033082
  37      0.000378992638
  38      0.000107048045
  39     -0.000719645582
  40     -0.000637808342
  41     -0.003239917996
  42      0.012255263979
  43     -0.072026022577
  44      0.141124615368
  45      0.042455761011
  46      0.118397971028
  47     -0.080628261922
  48     -0.188610930618
  49     -0.264431748582
  50      0.187069939930
  51     -0.056128587517
  52      0.134982891238
  53     -0.091008665464
  54      0.038864604247
  55     -0.115558957855
  56      0.012623644837
  57     -0.078097138401
  58      0.183138647622
  59     -0.004948280151
  60      0.125807790100
  61     -0.081425794917
  62      0.112174337199
  63     -0.311469107346
  64      0.193687140969
  65     -0.112282060358
  66     -0.071212314346
  67      0.050840501676
  68      0.068539821904
  69     -0.138838785464
  70      0.033020110195
  71      0.073371660157
  72     -0.013259402597
  73      0.114379151176
  74     -0.077564284720
  75      0.032202682528
  76      0.071768099836
  77     -0.013387203883
  78      0.114720420103
  79     -0.071654806679
  80      0.029923296823
  81      0.069812139439
  82      0.047872979547
  83      0.104538332914
  84     -0.069567478228
  85      0.030701078787
  86      0.070656867705
  87      0.048521479798
  88      0.106309875771
  89     -0.076377612473
 Ene=   0.13196451032078E+01
 Spin= Alpha
 Occup=    0.000000
   1      0.000002988548
   2      0.000001435709
   3     -0.000021100038
   4     -0.000033400304
   5      0.000022513602
   6      0.000086125841
   7     -0.000056332594
   8     -0.000518420943
   9     -0.000008920098
  10     -0.000098171488
  11      0.000020195281
  12      0.000027752883
  13      0.000083303310
  14     -0.000019588263
  15     -0.000023842326
  16      0.000386765595
  17     -0.000070982947
  18     -0.000121794426
  19     -0.000508784488
  20      0.000085824798
  21      0.000185311477
  22     -0.001159044709
  23     -0.010096202977
  24     -0.016844442117
  25      0.001544007125
  26      0.001990763667
  27      0.001301663681
  28      0.012575478696
  29      0.022734437756
  30     -0.001813606051
  31     -0.002699049964
  32     -0.001059185866
  33      0.000002515206
  34      0.000234011738
  35     -0.000003967845
  36     -0.000014998574
  37     -0.000007870135
  38     -0.000067781903
  39     -0.000031024924
  40      0.000014414844
  41      0.000007078642
  42      0.000017286377
  43     -0.001290204516
  44      0.007945320902
  45     -0.000950563439
  46     -0.005900197053
  47     -0.008551153306
  48      0.003219854353
  49      0.036862981010
  50      0.055908037294
  51     -0.001565249483
  52     -0.006751986802
  53     -0.013301635523
  54      0.023704610242
  55      0.011679262346
  56      0.000083872230
  57      0.000334616763
  58     -0.006054097576
  59      0.000479387213
  60      0.006180778414
  61      0.008486118526
  62     -0.006078233877
  63     -0.036869355342
  64     -0.056158475474
  65     -0.002510721008
  66     -0.012816822434
  67     -0.016557198760
  68     -0.020253453676
  69     -0.007555225764
  70     -0.012584275447
  71     -0.024613217376
  72     -0.029166998523
  73      0.042187591383
  74     -0.014167297067
  75      0.010993129352
  76      0.022926973780
  77      0.030137931758
  78     -0.032726995069
  79      0.030227014683
  80     -0.011402592769
  81     -0.023396879784
  82      0.038791962283
  83      0.022247384291
  84     -0.028756194814
  85      0.012493722199
  86      0.024387415623
  87     -0.040580198239
  88     -0.032053264460
  89      0.012766385246
 Ene=   0.13196451032085E+01
 Spin= Alpha
 Occup=    0.000000
   1     -0.000031657057
   2     -0.000015690964
   3      0.000262980342
   4      0.000446336042
   5     -0.000329794994
   6     -0.001095787532
   7      0.001039427756
   8     -0.001758560682
   9      0.000203571202
  10      0.000028736400
  11      0.000235578963
  12     -0.000198324630
  13     -0.000018243334
  14     -0.000155998956
  15      0.000128489783
  16     -0.000137185723
  17     -0.001074738213
  18      0.000875586519
  19      0.000214880458
  20      0.001601090177
  21     -0.001223951017
  22     -0.003538551427
  23      0.000916486679
  24      0.000242502754
  25     -0.000703542342
  26      0.001977618525
  27      0.004648471142
  28     -0.001347845459
  29     -0.000247103571
  30      0.000514819843
  31     -0.002349193654
  32     -0.000327206795
  33     -0.001517390704
  34      0.000722013653
  35      0.000001736084
  36      0.000005059650
  37     -0.000003988082
  38      0.000000002018
  39     -0.000003072197
  40      0.000000435590
  41     -0.000022790339
  42     -0.000080707887
  43      0.000853693759
  44     -0.000970724032
  45     -0.000014729150
  46      0.000340957188
  47     -0.000206041433
  48     -0.000976122338
  49     -0.000902935603
  50      0.000658421141
  51     -0.000609360158
  52      0.000436201467
  53     -0.000059060665
  54     -0.000008096697
  55     -0.000940268431
  56     -0.000071603187
  57      0.000974743492
  58     -0.002098667467
  59      0.000069194564
  60      0.000335886817
  61     -0.000334941207
  62      0.000497590675
  63     -0.000788494621
  64      0.001259735009
  65     -0.000727092335
  66      0.000070509773
  67     -0.000061038828
  68      0.000310712618
  69     -0.000875542663
  70      0.000316041282
  71      0.000772845023
  72     -0.000140051351
  73      0.000318615043
  74      0.000105906791
  75      0.000446154212
  76      0.000730201678
  77     -0.000475938558
  78      0.001088910560
  79     -0.000918424025
  80      0.000682643372
  81      0.001080322474
  82      0.000360483947
  83      0.000709162168
  84     -0.000617511278
  85      0.000319344542
  86      0.000647901704
  87      0.000631014268
  88      0.000672117965
  89     -0.000081833327
 Ene=   0.13701678195783E+01
 Spin= Alpha
 Occup=    0.000000
   1      0.000045907813
   2      0.000023160902
   3     -0.000425064455
   4     -0.000751268007
   5      0.000580123084
   6      0.001794968448
   7     -0.001871367582
   8      0.002857707049
   9     -0.000157664565
  10      0.000057343776
  11     -0.000242125405
  12      0.000685719840
  13     -0.000064940018
  14      0.000133409460
  15     -0.000462746159
  16     -0.000185186905
  17      0.001272554733
  18     -0.002995618924
  19      0.000206459080
  20     -0.002178281889
  21      0.004125912984
  22      0.007064304847
  23     -0.004613485597
  24     -0.003081887997
  25     -0.001375412270
  26     -0.004693443683
  27     -0.008392287076
  28      0.007047835695
  29      0.004466752857
  30      0.003855176344
  31      0.005626838421
  32      0.001055031301
  33      0.003586595983
  34     -0.000498313236
  35     -0.000009021362
  36     -0.000025171552
  37      0.000013710907
  38     -0.000018350360
  39     -0.000004058645
  40     -0.000013678139
  41      0.000055315194
  42      0.000302388368
  43     -0.002206189791
  44     -0.000628452588
  45      0.000477691176
  46      0.000308956532
  47      0.000863804152
  48      0.001419944919
  49     -0.002943490827
  50     -0.007496687092
  51      0.001504901764
  52     -0.000378363107
  53     -0.000256323762
  54      0.000332794219
  55      0.002029021660
  56      0.000258209005
  57     -0.003291649306
  58      0.008090823382
  59     -0.000170530119
  60     -0.000691466737
  61      0.000174521232
  62      0.000263661952
  63      0.003339927415
  64      0.000628444956
  65      0.001807410498
  66      0.000298558948
  67      0.001600466873
  68      0.000004192400
  69      0.002102483786
  70      0.001683248973
  71      0.001230441708
  72      0.002500231458
  73      0.000402834228
  74     -0.003511722308
  75     -0.002484335977
  76     -0.003692111218
  77     -0.000786524280
  78     -0.004909414807
  79      0.001869409644
  80     -0.001452580502
  81     -0.001342744957
  82     -0.002127476888
  83     -0.003117224380
  84      0.002991362523
  85     -0.001203683592
  86     -0.002942304157
  87     -0.000004030809
  88      0.000311890425
  89     -0.000873579718
 Ene=   0.13701678195786E+01
 Spin= Alpha
 Occup=    0.000000
   1     -0.000021823544
   2     -0.000010602613
   3      0.000151690129
   4      0.000236950851
   5     -0.000158045943
   6     -0.000613781847
   7      0.000451455365
   8      0.000810750448
   9     -0.000217313832
  10     -0.000215536090
  11     -0.000053431356
  12     -0.000442884109
  13      0.000172936930
  14      0.000049422387
  15      0.000318169684
  16      0.000837048560
  17      0.000202121805
  18      0.001858678646
  19     -0.001028065921
  20     -0.000226035344
  21     -0.002456444293
  22      0.048956498251
  23      0.219824525822
  24      0.338448482335
  25     -0.034083277516
  26     -0.044337388161
  27     -0.076230255274
  28     -0.343700711974
  29     -0.525183697125
  30      0.053594507157
  31      0.068708669859
  32     -0.003233771632
  33      0.000472464968
  34     -0.000645776227
  35      0.000077464173
  36      0.000497263266
  37      0.000291610331
  38      0.002279223989
  39      0.000940679516
  40     -0.000429908414
  41     -0.000142459382
  42      0.000023324531
  43     -0.002307877667
  44      0.017349813166
  45     -0.005229344019
  46     -0.037210745393
  47     -0.056395601236
  48      0.036430529802
  49      0.324914628157
  50      0.495722671139
  51     -0.006066517688
  52     -0.029150620312
  53     -0.045705480946
  54      0.002135325155
  55      0.005235919584
  56      0.000187305739
  57      0.001321284106
  58     -0.016400919713
  59      0.004328041427
  60      0.037456455282
  61      0.055408145232
  62     -0.044263831150
  63     -0.320200040613
  64     -0.492760075663
  65     -0.007014897424
  66     -0.030580317211
  67     -0.045897086283
  68      0.007206180274
  69      0.006713332434
  70     -0.117212165151
  71     -0.192256746547
  72     -0.116645542270
  73      0.014378576597
  74      0.133608151938
  75      0.114344235283
  76      0.189306187302
  77      0.131086215040
  78      0.106916595162
  79      0.052919861216
  80     -0.112413539037
  81     -0.188178659872
  82      0.095907267984
  83     -0.134091320838
  84     -0.051347603151
  85      0.115328432476
  86      0.189906352542
  87     -0.111780662899
  88      0.015869254763
  89     -0.133083829739
 Ene=   0.14047233909610E+01
 Spin= Alpha
 Occup=    0.000000
   1      0.000021827671
   2      0.000010866504
   3     -0.000186156319
   4     -0.000320383893
   5      0.000238903225
   6      0.000789666561
   7     -0.000823860713
   8      0.003426340614
   9     -0.000545560837
  10      0.002447542751
  11      0.000116928437
  12      0.000922667947
  13     -0.002669758989
  14     -0.000108350831
  15     -0.000541491981
  16     -0.009996784346
  17     -0.000415103720
  18     -0.003991870103
  19      0.016509380853
  20      0.000399789476
  21      0.004987264302
  22     -0.002863420881
  23     -0.012229330658
  24      0.000214932163
  25     -0.006552550266
  26     -0.004522283248
  27      0.004390526211
  28      0.019371404937
  29     -0.001323589224
  30      0.010546453664
  31      0.006561573420