[Molden Format]
[Title]
generated by TRESC, real part2 of MOs of job CO3
 
[Atoms] AU
 C   1   6    0.8683455824    5.9117408867    0.3946624736
 O   2   8    3.0759666602    6.0084693058    0.4150267281
 O   3   8   -1.2068755866    6.9101599458    1.3549785802
 O   4   8   -1.0934266921    4.7345528503   -0.6041387501
[GTO]
  1 0
 s  5 1.0
     1238.4016938000        0.0059599745
      186.2900499200        0.0422621111
       42.2511763500        0.1866575214
       11.6765579300        0.4675815865
        3.5930506500        0.4422897287
 s  1 1.0
        0.4024514700        1.0000000000
 s  1 1.0
        0.1309018300        1.0000000000
 p  3 1.0
        9.4680970600        0.0570294585
        2.0103545100        0.3130471495
        0.5477100500        0.7605135301
 p  1 1.0
        0.1526861400        1.0000000000
 d  1 1.0
        0.8000000000        1.0000000000
 
  2 0
 s  5 1.0
     2266.1767785000        0.0060711540
      340.8701019100        0.0417308970
       77.3631351700        0.1850777598
       21.4796449400        0.4668774046
        6.6589433100        0.4435718061
 s  1 1.0
        0.8097597600        1.0000000000
 s  1 1.0
        0.2553077200        1.0000000000
 p  3 1.0
       17.7215043200        0.0628680198
        3.8635505400        0.3334973703
        1.0480920900        0.7412421661
 p  1 1.0
        0.2764154400        1.0000000000
 d  1 1.0
        1.2000000000        1.0000000000
 
  3 0
 s  5 1.0
     2266.1767785000        0.0060711540
      340.8701019100        0.0417308970
       77.3631351700        0.1850777598
       21.4796449400        0.4668774046
        6.6589433100        0.4435718061
 s  1 1.0
        0.8097597600        1.0000000000
 s  1 1.0
        0.2553077200        1.0000000000
 p  3 1.0
       17.7215043200        0.0628680198
        3.8635505400        0.3334973703
        1.0480920900        0.7412421661
 p  1 1.0
        0.2764154400        1.0000000000
 d  1 1.0
        1.2000000000        1.0000000000
 
  4 0
 s  5 1.0
     2266.1767785000        0.0060711540
      340.8701019100        0.0417308970
       77.3631351700        0.1850777598
       21.4796449400        0.4668774046
        6.6589433100        0.4435718061
 s  1 1.0
        0.8097597600        1.0000000000
 s  1 1.0
        0.2553077200        1.0000000000
 p  3 1.0
       17.7215043200        0.0628680198
        3.8635505400        0.3334973703
        1.0480920900        0.7412421661
 p  1 1.0
        0.2764154400        1.0000000000
 d  1 1.0
        1.2000000000        1.0000000000
 
[5D]
[7F]
[9G]
[MO]
 Ene=   0.94086247903358E+00
 Spin= Alpha
 Occup=    0.000000
   1      0.000000000000
   2      0.000000000000
   3      0.000000000000
   4      0.000000000000
   5      0.000000000000
   6      0.000000000000
   7      0.000000000000
   8      0.000000000000
   9      0.000000000000
  10      0.000000000000
  11      0.000000000000
  12      0.000000000000
  13      0.000000000000
  14      0.000000000000
  15      0.000000000000
  16      0.000000000000
  17      0.000000000000
  18      0.000000000000
  19      0.000000000000
  20      0.000000000000
  21      0.000000000000
  22      0.000000000000
  23      0.000000000000
  24      0.000000000000
  25      0.000000000000
  26      0.000000000000
  27      0.000000000000
  28      0.000000000000
  29      0.000000000000
  30      0.000000000000
  31      0.000000000000
  32      0.000000000000
  33      0.000000000000
  34      0.000000000000
  35      0.000000000000
  36      0.000000000000
  37      0.000000000000
  38      0.000000000000
  39      0.000000000000
  40      0.000000000000
  41      0.000000000000
  42      0.000000000000
  43      0.000000000000
  44      0.000000000000
  45      0.000000000000
  46      0.000000000000
  47      0.000000000000
  48      0.000000000000
  49      0.000000000000
  50      0.000000000000
  51      0.000000000000
  52      0.000000000000
  53      0.000000000000
  54      0.000000000000
  55      0.000000000000
  56      0.000000000000
 Ene=   0.94086247903358E+00
 Spin= Alpha
 Occup=    0.000000
   1     -0.000025254482
   2     -0.000029138279
   3     -0.003719644676
   4     -0.000008137454
   5      0.000346197268
   6      0.000042073202
   7      0.000052504695
   8      0.003133754095
   9      0.000063478356
  10      0.061016466958
  11     -0.000862668258
  12      0.007896443988
  13      0.034683879314
  14      0.002830824733
  15     -0.000139332602
  16      0.000677166093
  17     -0.001153716191
  18      0.000011505372
  19      0.001752945708
  20     -0.000015002017
  21     -0.000095388430
  22     -0.002296257403
  23      0.000094366727
  24      0.011764148569
  25     -0.000200435978
  26      0.001492367354
  27      0.006816687058
  28      0.000594704360
  29      0.000309104831
  30     -0.001858003773
  31      0.004324897067
  32     -0.486756097787
  33     -0.014231575996
  34      0.435701791990
  35      0.666144761059
  36      0.020255784422
  37     -0.597487202621
  38      0.030737167172
  39      0.003782018560
  40      0.004021041695
  41      0.018003444968
  42     -0.002207005420
  43      0.000307573251
  44     -0.001861176861
  45      0.004345626107
  46      0.487168426474
  47      0.015061430193
  48     -0.436039191292
  49     -0.666445495290
  50     -0.019922942016
  51      0.597850396885
  52      0.030537166677
  53     -0.004789895865
  54      0.003705504680
  55      0.017386833223
  56      0.005264934663
 Ene=   0.97592617495718E+00
 Spin= Alpha
 Occup=    0.000000
   1      0.000000000000
   2      0.000000000000
   3      0.000000000000
   4      0.000000000000
   5      0.000000000000
   6      0.000000000000
   7      0.000000000000
   8      0.000000000000
   9      0.000000000000
  10      0.000000000000
  11      0.000000000000
  12      0.000000000000
  13      0.000000000000
  14      0.000000000000
  15      0.000000000000
  16      0.000000000000
  17      0.000000000000
  18      0.000000000000
  19      0.000000000000
  20      0.000000000000
  21      0.000000000000
  22      0.000000000000
  23      0.000000000000
  24      0.000000000000
  25      0.000000000000
  26      0.000000000000
  27      0.000000000000
  28      0.000000000000
  29      0.000000000000
  30      0.000000000000
  31      0.000000000000
  32      0.000000000000
  33      0.000000000000
  34      0.000000000000
  35      0.000000000000
  36      0.000000000000
  37      0.000000000000
  38      0.000000000000
  39      0.000000000000
  40      0.000000000000
  41      0.000000000000
  42      0.000000000000
  43      0.000000000000
  44      0.000000000000
  45      0.000000000000
  46      0.000000000000
  47      0.000000000000
  48      0.000000000000
  49      0.000000000000
  50      0.000000000000
  51      0.000000000000
  52      0.000000000000
  53      0.000000000000
  54      0.000000000000
  55      0.000000000000
  56      0.000000000000
 Ene=   0.97592617495718E+00
 Spin= Alpha
 Occup=    0.000000
   1      0.021992497526
   2     -0.329981361428
   3     -0.113122007621
   4     -0.000551335384
   5     -0.067933588111
   6     -0.002883054332
   7      0.003592036297
   8      0.385160248786
   9      0.016881107803
  10      0.102091617074
  11     -0.007410445188
  12      0.080698869330
  13     -0.193225659925
  14     -0.018199351067
  15      0.011974890843
  16     -0.105762497478
  17      0.180765072692
  18      0.002017027147
  19      0.309190489362
  20      0.012656886343
  21     -0.005201325578
  22     -0.695030560972
  23     -0.029156028368
  24      0.000033710179
  25      0.000217818340
  26     -0.003505612788
  27      0.000678727553
  28      0.000153008209
  29     -0.018923419804
  30      0.081040941818
  31      0.005922736119
  32      0.256134965266
  33      0.429806254163
  34      0.299317574997
  35     -0.341066117215
  36     -0.414944808289
  37     -0.393261279392
  38     -0.030229039312
  39      0.018042452103
  40     -0.048189350423
  41      0.061345885789
  42      0.022413470633
  43     -0.018855399814
  44      0.080375809974
  45      0.007120115777
  46     -0.247736853130
  47      0.458180506200
  48     -0.260265359345
  49      0.333113903709
  50     -0.452099460913
  51      0.355487574636
  52     -0.030678620325
  53     -0.011611974621
  54     -0.049794692243
  55      0.064477172157
  56     -0.010462068509
 Ene=   0.10143049057113E+01
 Spin= Alpha
 Occup=    0.000000
   1      0.000040700547
   2     -0.000816249388
   3     -0.000710540965
   4     -0.100992344370
   5      0.005763178786
   6     -0.112155220157
   7      0.043399662279
   8     -0.001234169787
   9      0.048238675877
  10      0.002648336667
  11      0.155463209732
  12      0.008559371612
  13     -0.016901306404
  14      0.172323765346
  15      0.000044675289
  16     -0.000299844586
  17      0.000245900848
  18      0.458099306782
  19     -0.026106947292
  20      0.508735721426
  21     -0.634446506465
  22      0.035635970696
  23     -0.704593081604
  24     -0.000376893454
  25     -0.023888905513
  26     -0.001300824797
  27      0.002543199285
  28     -0.026482821704
  29      0.001476551164
  30     -0.055886765746
  31      0.136739012025
  32     -0.106148248001
  33     -0.335802689315
  34     -0.129322678154
  35      0.085684696218
  36      0.683373346513
  37      0.118232240565
  38      0.007416540860
  39      0.013604366347
  40      0.002115601963
  41     -0.014184325886
  42      0.014275098346
  43     -0.001458389725
  44      0.055686023573
  45     -0.135213073471
  46     -0.100485831104
  47      0.349677295240
  48     -0.100081664186
  49      0.073907538640
  50     -0.694051394822
  51      0.058947879786
  52     -0.007081609896
  53      0.014212312991
  54     -0.000692179268
  55      0.011431196485
  56      0.016572686741
 Ene=   0.10143049057113E+01
 Spin= Alpha
 Occup=    0.000000
   1      0.000000000000
   2      0.000000000000
   3      0.000000000000
   4      0.000000000000
   5      0.000000000000
   6      0.000000000000
   7      0.000000000000
   8      0.000000000000
   9      0.000000000000
  10      0.000000000000
  11      0.000000000000
  12      0.000000000000
  13      0.000000000000
  14      0.000000000000
  15      0.000000000000
  16      0.000000000000
  17      0.000000000000
  18      0.000000000000
  19      0.000000000000
  20      0.000000000000
  21      0.000000000000
  22      0.000000000000
  23      0.000000000000
  24      0.000000000000
  25      0.000000000000
  26      0.000000000000
  27      0.000000000000
  28      0.000000000000
  29      0.000000000000
  30      0.000000000000
  31      0.000000000000
  32      0.000000000000
  33      0.000000000000
  34      0.000000000000
  35      0.000000000000
  36      0.000000000000
  37      0.000000000000
  38      0.000000000000
  39      0.000000000000
  40      0.000000000000
  41      0.000000000000
  42      0.000000000000
  43      0.000000000000
  44      0.000000000000
  45      0.000000000000
  46      0.000000000000
  47      0.000000000000
  48      0.000000000000
  49      0.000000000000
  50      0.000000000000
  51      0.000000000000
  52      0.000000000000
  53      0.000000000000
  54      0.000000000000
  55      0.000000000000
  56      0.000000000000
 Ene=   0.10915925994163E+01
 Spin= Alpha
 Occup=    0.000000
   1     -0.000005942245
   2      0.000095467163
   3      0.000049502349
   4      0.046497034517
   5      0.001413650502
   6     -0.041795976601
   7     -0.761110277694
   8     -0.022883628027
   9      0.684179464888
  10     -0.001144757351
  11     -0.067007662209
  12     -0.002373167138
  13     -0.004682345560
  14      0.060127388440
  15     -0.000009657596
  16      0.000067928219
  17     -0.000175803341
  18     -0.579664909402
  19     -0.017445251523
  20      0.521073376213
  21      0.969522215699
  22      0.029264797182
  23     -0.871519934090
  24      0.000652294686
  25      0.040917713586
  26      0.001452660135
  27      0.002844080018
  28     -0.036717440271
  29     -0.000008374060
  30      0.000050790611
  31     -0.000014749797
  32     -0.266988162505
  33     -0.008047021719
  34      0.239974421267
  35      0.444168995325
  36      0.013377413697
  37     -0.399243712712
  38     -0.011368751222
  39     -0.022389270333
  40     -0.002142862663
  41     -0.007902641957
  42      0.019703158039
  43     -0.000008318112
  44      0.000049872682
  45     -0.000012239835
  46     -0.266641984255
  47     -0.008038501818
  48      0.239715710795
  49      0.443493773856
  50      0.013359004200
  51     -0.398691464441
  52      0.010669231819
  53     -0.022716665079
  54      0.000550231360
  55      0.004777926765
  56      0.020772839094
 Ene=   0.10915925994163E+01
 Spin= Alpha
 Occup=    0.000000
   1      0.000000000000
   2      0.000000000000
   3      0.000000000000
   4      0.000000000000
   5      0.000000000000
   6      0.000000000000
   7      0.000000000000
   8      0.000000000000
   9      0.000000000000
  10      0.000000000000
  11      0.000000000000
  12      0.000000000000
  13      0.000000000000
  14      0.000000000000
  15      0.000000000000
  16      0.000000000000
  17      0.000000000000
  18      0.000000000000
  19      0.000000000000
  20      0.000000000000
  21      0.000000000000
  22      0.000000000000
  23      0.000000000000
  24      0.000000000000
  25      0.000000000000
  26      0.000000000000
  27      0.000000000000
  28      0.000000000000
  29      0.000000000000
  30      0.000000000000
  31      0.000000000000
  32      0.000000000000
  33      0.000000000000
  34      0.000000000000
  35      0.000000000000
  36      0.000000000000
  37      0.000000000000
  38      0.000000000000
  39      0.000000000000
  40      0.000000000000
  41      0.000000000000
  42      0.000000000000
  43      0.000000000000
  44      0.000000000000
  45      0.000000000000
  46      0.000000000000
  47      0.000000000000
  48      0.000000000000
  49      0.000000000000
  50      0.000000000000
  51      0.000000000000
  52      0.000000000000
  53      0.000000000000
  54      0.000000000000
  55      0.000000000000
  56      0.000000000000
 Ene=   0.11295484523722E+01
 Spin= Alpha
 Occup=    0.000000
   1     -0.000004450224
   2      0.000377135859
   3      0.000345181754
   4      0.175097779350
   5     -0.010298947304
   6      0.194441270156
   7     -0.611266473879
   8      0.035102121459
   9     -0.678824943450
  10     -0.001051470834
  11     -0.060684385530
  12     -0.003321656079
  13      0.006640668528
  14     -0.067262179057
  15     -0.000028241106
  16      0.000168376171
  17     -0.000258202868
  18     -0.286893371995
  19      0.016514055350
  20     -0.318600252259
  21      0.536434639508
  22     -0.030757225379
  23      0.595724430477
  24      0.000225941317
  25      0.013275167806
  26      0.000722604096
  27     -0.001438241687
  28      0.014715053226
  29     -0.075596649188
  30      0.588801387005
  31     -1.157571237458
  32     -0.229869846517
  33     -0.303604801133
  34     -0.265976456173
  35      0.915064604206
  36      0.489056086950
  37      1.034489641611
  38      0.001588079418
  39      0.004591523084
  40      0.037717080622
  41     -0.011142076219
  42      0.005774099978
  43      0.075607615512
  44     -0.588760666741
  45      1.156895436864
  46     -0.223910533887
  47      0.329447082568
  48     -0.237964718752
  49      0.904652748077
  50     -0.594479952463
  51      0.986313997429
  52     -0.001376879524
  53      0.008126251291
  54     -0.037023469319
  55      0.009760157833
  56      0.008322640556
 Ene=   0.11295484523722E+01
 Spin= Alpha
 Occup=    0.000000
   1      0.000000000000
   2      0.000000000000
   3      0.000000000000
   4      0.000000000000
   5      0.000000000000
   6      0.000000000000
   7      0.000000000000
   8      0.000000000000
   9      0.000000000000
  10      0.000000000000
  11      0.000000000000
  12      0.000000000000
  13      0.000000000000
  14      0.000000000000
  15      0.000000000000
  16      0.000000000000
  17      0.000000000000
  18      0.000000000000
  19      0.000000000000
  20      0.000000000000
  21      0.000000000000
  22      0.000000000000
  23      0.000000000000
  24      0.000000000000
  25      0.000000000000
  26      0.000000000000
  27      0.000000000000
  28      0.000000000000
  29      0.000000000000
  30      0.000000000000
  31      0.000000000000
  32      0.000000000000
  33      0.000000000000
  34      0.000000000000
  35      0.000000000000
  36      0.000000000000
  37      0.000000000000
  38      0.000000000000
  39      0.000000000000
  40      0.000000000000
  41      0.000000000000
  42      0.000000000000
  43      0.000000000000
  44      0.000000000000
  45      0.000000000000
  46      0.000000000000
  47      0.000000000000
  48      0.000000000000
  49      0.000000000000
  50      0.000000000000
  51      0.000000000000
  52      0.000000000000
  53      0.000000000000
  54      0.000000000000
  55      0.000000000000
  56      0.000000000000
 Ene=   0.13163274442218E+01
 Spin= Alpha
 Occup=    0.000000
   1      0.000000000000
   2      0.000000000000
   3      0.000000000000
   4      0.000000000000
   5      0.000000000000
   6      0.000000000000
   7      0.000000000000
   8      0.000000000000
   9      0.000000000000
  10      0.000000000000
  11      0.000000000000
  12      0.000000000000
  13      0.000000000000
  14      0.000000000000
  15      0.000000000000
  16      0.000000000000
  17      0.000000000000
  18      0.000000000000
  19      0.000000000000
  20      0.000000000000
  21      0.000000000000
  22      0.000000000000
  23      0.000000000000
  24      0.000000000000
  25      0.000000000000
  26      0.000000000000
  27      0.000000000000
  28      0.000000000000
  29      0.000000000000
  30      0.000000000000
  31      0.000000000000
  32      0.000000000000
  33      0.000000000000
  34      0.000000000000
  35      0.000000000000
  36      0.000000000000
  37      0.000000000000
  38      0.000000000000
  39      0.000000000000
  40      0.000000000000
  41      0.000000000000
  42      0.000000000000
  43      0.000000000000
  44      0.000000000000
  45      0.000000000000
  46      0.000000000000
  47      0.000000000000
  48      0.000000000000
  49      0.000000000000
  50      0.000000000000
  51      0.000000000000
  52      0.000000000000
  53      0.000000000000
  54      0.000000000000
  55      0.000000000000
  56      0.000000000000
 Ene=   0.13163274442218E+01
 Spin= Alpha
 Occup=    0.000000
   1      0.081583971537
   2     -1.147163014237
   3     -2.908278229593
   4     -0.001828302046
   5     -0.175930427180
   6     -0.007926969063
   7     -0.005317704381
   8     -0.467746434097
   9     -0.021302569280
  10      0.166212027402
  11     -0.005304786825
  12      0.002596293341
  13     -0.287425375034
  14     -0.025271615214
  15      0.160662876156
  16     -1.222143478805
  17      3.293630601703
  18     -0.002686576777
  19     -0.260723180036
  20     -0.011625343568
  21     -0.008303508245
  22     -0.966387098899
  23     -0.041826617833
  24      0.009982928368
  25     -0.001229954708
  26      0.020566905566
  27     -0.021577472989
  28     -0.002040242025
  29      0.145114254705
  30     -0.964707025125
  31      1.644163722030
  32      0.105405748472
  33     -0.167608302083
  34      0.111669982264
  35     -0.208584225832
  36      0.775304181651
  37     -0.206094011298
  38      0.007754208549
  39      0.038762045011
  40     -0.043314791628
  41     -0.006718854097
  42      0.041118866436
  43      0.144843839563
  44     -0.962524579872
  45      1.638394963889
  46     -0.108738629748
  47     -0.155103967274
  48     -0.126134958542
  49      0.222164867734
  50      0.748371024621
  51      0.272187635574
  52      0.006533511393
  53     -0.035104596345
  54     -0.047269715948
  55      0.001189119913
  56     -0.040762882617
 Ene=   0.14012445275725E+01
 Spin= Alpha
 Occup=    0.000000
   1      0.000000000000
   2      0.000000000000
   3      0.000000000000
   4      0.000000000000
   5      0.000000000000
   6      0.000000000000
   7      0.000000000000
   8      0.000000000000
   9      0.000000000000
  10      0.000000000000
  11      0.000000000000
  12      0.000000000000
  13      0.000000000000
  14      0.000000000000
  15      0.000000000000
  16      0.000000000000
  17      0.000000000000
  18      0.000000000000
  19      0.000000000000
  20      0.000000000000
  21      0.000000000000
  22      0.000000000000
  23      0.000000000000
  24      0.000000000000
  25      0.000000000000
  26      0.000000000000
  27      0.000000000000
  28      0.000000000000
  29      0.000000000000
  30      0.000000000000
  31      0.000000000000
  32      0.000000000000
  33      0.000000000000
  34      0.000000000000
  35      0.000000000000
  36      0.000000000000
  37      0.000000000000
  38      0.000000000000
  39      0.000000000000
  40      0.000000000000
  41      0.000000000000
  42      0.000000000000
  43      0.000000000000
  44      0.000000000000
  45      0.000000000000
  46      0.000000000000
  47      0.000000000000
  48      0.000000000000
  49      0.000000000000
  50      0.000000000000
  51      0.000000000000
  52      0.000000000000
  53      0.000000000000
  54      0.000000000000
  55      0.000000000000
  56      0.000000000000
 Ene=   0.14012445275725E+01
 Spin= Alpha
 Occup=    0.000000
   1      0.000025876031
   2      0.000829246824
   3     -0.000598686645
   4      0.257014510826
   5     -0.015082662849
   6      0.285408551360
   7      1.265853132325
   8     -0.072130725024
   9      1.405774580318
  10     -0.001962132068
  11     -0.118854871276
  12     -0.005691994288
  13      0.012471981659
  14     -0.131747501341
  15     -0.000217471792
  16      0.001313182205
  17     -0.002033103586
  18      0.251472301853
  19     -0.015258482193
  20      0.279238362940
  21     -0.675736129536
  22      0.040275184888
  23     -0.750369105273
  24     -0.001010457159
  25     -0.059612541662
  26     -0.003079114576
  27      0.006390685169
  28     -0.066076091361
  29     -0.170954056583
  30      1.322930657473
  31     -3.092812837156
  32      0.029498532231
  33      0.242090738125
  34      0.040990737906
  35      0.512496579954
  36     -1.100436886562
  37      0.533001059048
  38     -0.026218995424
  39     -0.025009273858
  40      0.060322341827
  41      0.034084757956
  42     -0.023267638242
  43      0.171436908900
  44     -1.325688095163
  45      3.095833863848
  46      0.023893895873
  47     -0.246502154398
  48      0.018256969425
  49      0.534000084975
  50      1.041298240230
  51      0.629185649410
  52      0.025312975727
  53     -0.021317324920
  54     -0.063191612987
  55     -0.028745029655
  56     -0.028073598411
 Ene=   0.14827842647471E+01
 Spin= Alpha
 Occup=    0.000000
   1      0.000000000000
   2      0.000000000000
   3      0.000000000000
   4      0.000000000000
   5      0.000000000000
   6      0.000000000000
   7      0.000000000000
   8      0.000000000000
   9      0.000000000000
  10      0.000000000000
  11      0.000000000000
  12      0.000000000000
  13      0.000000000000
  14      0.000000000000
  15      0.000000000000
  16      0.000000000000
  17      0.000000000000
  18      0.000000000000
  19      0.000000000000
  20      0.000000000000
  21      0.000000000000
  22      0.000000000000
  23      0.000000000000
  24      0.000000000000
  25      0.000000000000
  26      0.000000000000
  27      0.000000000000
  28      0.000000000000
  29      0.000000000000
  30      0.000000000000
  31      0.000000000000
  32      0.000000000000
  33      0.000000000000
  34      0.000000000000
  35      0.000000000000
  36      0.000000000000
  37      0.000000000000
  38      0.000000000000
  39      0.000000000000
  40      0.000000000000
  41      0.000000000000
  42      0.000000000000
  43      0.000000000000
  44      0.000000000000
  45      0.000000000000
  46      0.000000000000
  47      0.000000000000
  48      0.000000000000
  49      0.000000000000
  50      0.000000000000
  51      0.000000000000
  52      0.000000000000
  53      0.000000000000
  54      0.000000000000
  55      0.000000000000
  56      0.000000000000
 Ene=   0.14827842647471E+01
 Spin= Alpha
 Occup=    0.000000
   1      0.000017673809
   2     -0.000364687442
   3     -0.000527241949
   4     -0.036292533773
   5     -0.001265005552
   6      0.032616807868
   7      0.062604597548
   8     -0.000143701454
   9     -0.056374582561
  10     -0.010894988418
  11     -0.625872343674
  12     -0.022699857966
  13     -0.044089006161
  14      0.561605479933
  15      0.000176351405
  16     -0.001244122504
  17      0.003133415209
  18      0.166637164335
  19      0.005164531209
  20     -0.149784726190
  21      0.056779369406
  22      0.000779498700
  23     -0.051092685849
  24      0.002178916273
  25      0.142063319959
  26      0.004976416584
  27      0.009765645520
  28     -0.127486739073
  29     -0.000060651308
  30      0.000380257024
  31     -0.000963313889
  32     -0.031974076137
  33     -0.000880019272
  34      0.028534143388
  35     -0.114910030020
  36     -0.003622338972
  37      0.103773116090
  38     -0.138232328767
  39      0.103191829086
  40     -0.013455562440
  41     -0.073513168766
  42     -0.097627632160
  43     -0.000059583343
  44      0.000371693262
  45     -0.000942288093
  46     -0.031349601286
  47     -0.000881092930
  48      0.028397149436
  49     -0.115940318904
  50     -0.003604560072
  51      0.103736158259
  52      0.141624721964
  53      0.098985079924
  54      0.020742153165
  55      0.087493250311
  56     -0.083811140935
 Ene=   0.15104126592270E+01
 Spin= Alpha
 Occup=    0.000000
   1      0.000000000000
   2      0.000000000000
   3      0.000000000000
   4      0.000000000000
   5      0.000000000000
   6      0.000000000000
   7      0.000000000000
   8      0.000000000000
   9      0.000000000000
  10      0.000000000000
  11      0.000000000000
  12      0.000000000000
  13      0.000000000000
  14      0.000000000000
  15      0.000000000000
  16      0.000000000000
  17      0.000000000000
  18      0.000000000000
  19      0.000000000000
  20      0.000000000000
  21      0.000000000000
  22      0.000000000000
  23      0.000000000000
  24      0.000000000000
  25      0.000000000000
  26      0.000000000000
  27      0.000000000000
  28      0.000000000000
  29      0.000000000000
  30      0.000000000000
  31      0.000000000000
  32      0.000000000000
  33      0.000000000000
  34      0.000000000000
  35      0.000000000000
  36      0.000000000000
  37      0.000000000000
  38      0.000000000000
  39      0.000000000000
  40      0.000000000000
  41      0.000000000000
  42      0.000000000000
  43      0.000000000000
  44      0.000000000000
  45      0.000000000000
  46      0.000000000000
  47      0.000000000000
  48      0.000000000000
  49      0.000000000000
  50      0.000000000000
  51      0.000000000000
  52      0.000000000000
  53      0.000000000000
  54      0.000000000000
  55      0.000000000000
  56      0.000000000000
 Ene=   0.15104126592270E+01
 Spin= Alpha
 Occup=    0.000000
   1      0.013675866978
   2     -0.343454954800
   3     -0.237557659643
   4     -0.001617671209
   5     -0.223520845450
   6     -0.009358659400
   7     -0.025443006906
   8     -2.997376349704
   9     -0.128941206683
  10      0.019863511795
  11      0.012076797992
  12     -0.270785284543
  13      0.022930365837
  14      0.003958274654
  15      0.238440103695
  16     -1.664678340106
  17      4.131151328219
  18      0.002594141720
  19      0.252585855246
  20      0.011574658164
  21     -0.012437050891
  22     -1.220103924496
  23     -0.054612066044
  24      0.042279959078
  25      0.000860742022
  26     -0.053369216766
  27     -0.061711631272
  28     -0.004954710735
  29     -0.121277035565
  30      0.766022333932
  31     -1.770809081392
  32     -0.197157276059
  33      0.152690036466
  34     -0.214212375355
  35      0.386876296566
  36     -0.361844292532
  37      0.417961783105
  38      0.037603577013
  39     -0.072815864447
  40      0.034682823446
  41     -0.067258212952
  42     -0.084167350185
  43     -0.120634762535
  44      0.760871736193
  45     -1.757640934184
  46      0.199970122495
  47      0.128819936539
  48      0.226768422185
  49     -0.390917526331
  50     -0.312703387811
  51     -0.445628855990
  52      0.039734140533
  53      0.066485012731
  54      0.041917687106
  55     -0.082401044078
  56      0.070209380770
 Ene=   0.15148269406239E+01
 Spin= Alpha
 Occup=    0.000000
   1      0.000000000000
   2      0.000000000000
   3      0.000000000000
   4      0.000000000000
   5      0.000000000000
   6      0.000000000000
   7      0.000000000000
   8      0.000000000000
   9      0.000000000000
  10      0.000000000000
  11      0.000000000000
  12      0.000000000000
  13      0.000000000000
  14      0.000000000000
  15      0.000000000000
  16      0.000000000000
  17      0.000000000000
  18      0.000000000000
  19      0.000000000000
  20      0.000000000000
  21      0.000000000000
  22      0.000000000000
  23      0.000000000000
  24      0.000000000000
  25      0.000000000000
  26      0.000000000000
  27      0.000000000000
  28      0.000000000000
  29      0.000000000000
  30      0.000000000000
  31      0.000000000000
  32      0.000000000000
  33      0.000000000000
  34      0.000000000000
  35      0.000000000000
  36      0.000000000000
  37      0.000000000000
  38      0.000000000000
  39      0.000000000000
  40      0.000000000000
  41      0.000000000000