[Molden Format]
[Title]
generated by TRESC, real part1 of MOs of job CO3
 
[Atoms] AU
 C   1   6    0.8683455824    5.9117408867    0.3946624736
 O   2   8    3.0759666602    6.0084693058    0.4150267281
 O   3   8   -1.2068755866    6.9101599458    1.3549785802
 O   4   8   -1.0934266921    4.7345528503   -0.6041387501
[GTO]
  1 0
 s  5 1.0
     1238.4016938000        0.0059599745
      186.2900499200        0.0422621111
       42.2511763500        0.1866575214
       11.6765579300        0.4675815865
        3.5930506500        0.4422897287
 s  1 1.0
        0.4024514700        1.0000000000
 s  1 1.0
        0.1309018300        1.0000000000
 p  3 1.0
        9.4680970600        0.0570294585
        2.0103545100        0.3130471495
        0.5477100500        0.7605135301
 p  1 1.0
        0.1526861400        1.0000000000
 d  1 1.0
        0.8000000000        1.0000000000
 
  2 0
 s  5 1.0
     2266.1767785000        0.0060711540
      340.8701019100        0.0417308970
       77.3631351700        0.1850777598
       21.4796449400        0.4668774046
        6.6589433100        0.4435718061
 s  1 1.0
        0.8097597600        1.0000000000
 s  1 1.0
        0.2553077200        1.0000000000
 p  3 1.0
       17.7215043200        0.0628680198
        3.8635505400        0.3334973703
        1.0480920900        0.7412421661
 p  1 1.0
        0.2764154400        1.0000000000
 d  1 1.0
        1.2000000000        1.0000000000
 
  3 0
 s  5 1.0
     2266.1767785000        0.0060711540
      340.8701019100        0.0417308970
       77.3631351700        0.1850777598
       21.4796449400        0.4668774046
        6.6589433100        0.4435718061
 s  1 1.0
        0.8097597600        1.0000000000
 s  1 1.0
        0.2553077200        1.0000000000
 p  3 1.0
       17.7215043200        0.0628680198
        3.8635505400        0.3334973703
        1.0480920900        0.7412421661
 p  1 1.0
        0.2764154400        1.0000000000
 d  1 1.0
        1.2000000000        1.0000000000
 
  4 0
 s  5 1.0
     2266.1767785000        0.0060711540
      340.8701019100        0.0417308970
       77.3631351700        0.1850777598
       21.4796449400        0.4668774046
        6.6589433100        0.4435718061
 s  1 1.0
        0.8097597600        1.0000000000
 s  1 1.0
        0.2553077200        1.0000000000
 p  3 1.0
       17.7215043200        0.0628680198
        3.8635505400        0.3334973703
        1.0480920900        0.7412421661
 p  1 1.0
        0.2764154400        1.0000000000
 d  1 1.0
        1.2000000000        1.0000000000
 
[5D]
[7F]
[9G]
[MO]
 Ene=  -0.19341008736967E+02
 Spin= Alpha
 Occup=    1.000000
   1      0.000357347269
   2      0.001288181076
   3      0.016536981551
   4      0.000139113890
   5     -0.000894674810
   6      0.000124634537
   7      0.001530226057
   8     -0.017983211448
   9      0.001096729962
  10      0.000736044221
  11      0.000407293225
  12      0.000047765211
  13     -0.001309701901
  14      0.000367045045
  15     -0.000426566238
  16     -0.000732166407
  17      0.007230797547
  18      0.000043130427
  19     -0.000391394671
  20      0.000034748701
  21     -0.000680571030
  22     -0.000578469217
  23     -0.000775630353
  24     -0.000123256419
  25      0.000186950600
  26      0.000105405097
  27      0.000177853373
  28      0.000223903006
  29      0.873896924571
  30      0.041665374129
  31     -0.033413134980
  32     -0.001605562621
  33      0.001873252323
  34     -0.001723027321
  35      0.003605043009
  36     -0.006538710350
  37      0.003790223400
  38      0.000031630546
  39      0.000067232300
  40      0.000046257357
  41     -0.000069133582
  42      0.000071949042
  43      0.460010138980
  44      0.022377065074
  45     -0.018868612064
  46      0.001126848709
  47      0.000809792839
  48      0.001280854304
  49     -0.001299860431
  50     -0.004071502812
  51     -0.001583166745
  52      0.000104950383
  53     -0.000192696975
  54      0.000319529070
  55     -0.000236808444
  56     -0.000218598370
 Ene=  -0.19341008736967E+02
 Spin= Alpha
 Occup=    0.000000
   1      0.000000000000
   2      0.000000000000
   3      0.000000000000
   4      0.000000000000
   5      0.000000000000
   6      0.000000000000
   7      0.000000000000
   8      0.000000000000
   9      0.000000000000
  10      0.000000000000
  11      0.000000000000
  12      0.000000000000
  13      0.000000000000
  14      0.000000000000
  15      0.000000000000
  16      0.000000000000
  17      0.000000000000
  18      0.000000000000
  19      0.000000000000
  20      0.000000000000
  21      0.000000000000
  22      0.000000000000
  23      0.000000000000
  24      0.000000000000
  25      0.000000000000
  26      0.000000000000
  27      0.000000000000
  28      0.000000000000
  29      0.000000000000
  30      0.000000000000
  31      0.000000000000
  32      0.000000000000
  33      0.000000000000
  34      0.000000000000
  35      0.000000000000
  36      0.000000000000
  37      0.000000000000
  38      0.000000000000
  39      0.000000000000
  40      0.000000000000
  41      0.000000000000
  42      0.000000000000
  43      0.000000000000
  44      0.000000000000
  45      0.000000000000
  46      0.000000000000
  47      0.000000000000
  48      0.000000000000
  49      0.000000000000
  50      0.000000000000
  51      0.000000000000
  52      0.000000000000
  53      0.000000000000
  54      0.000000000000
  55      0.000000000000
  56      0.000000000000
 Ene=  -0.19340832458342E+02
 Spin= Alpha
 Occup=    0.000000
   1      0.000000000000
   2      0.000000000000
   3      0.000000000000
   4      0.000000000000
   5      0.000000000000
   6      0.000000000000
   7      0.000000000000
   8      0.000000000000
   9      0.000000000000
  10      0.000000000000
  11      0.000000000000
  12      0.000000000000
  13      0.000000000000
  14      0.000000000000
  15      0.000000000000
  16      0.000000000000
  17      0.000000000000
  18      0.000000000000
  19      0.000000000000
  20      0.000000000000
  21      0.000000000000
  22      0.000000000000
  23      0.000000000000
  24      0.000000000000
  25      0.000000000000
  26      0.000000000000
  27      0.000000000000
  28      0.000000000000
  29      0.000000000000
  30      0.000000000000
  31      0.000000000000
  32      0.000000000000
  33      0.000000000000
  34      0.000000000000
  35      0.000000000000
  36      0.000000000000
  37      0.000000000000
  38      0.000000000000
  39      0.000000000000
  40      0.000000000000
  41      0.000000000000
  42      0.000000000000
  43      0.000000000000
  44      0.000000000000
  45      0.000000000000
  46      0.000000000000
  47      0.000000000000
  48      0.000000000000
  49      0.000000000000
  50      0.000000000000
  51      0.000000000000
  52      0.000000000000
  53      0.000000000000
  54      0.000000000000
  55      0.000000000000
  56      0.000000000000
 Ene=  -0.19340832458342E+02
 Spin= Alpha
 Occup=    1.000000
   1      0.000109835928
   2      0.000398871962
   3      0.005128784870
   4     -0.000479937116
   5     -0.000248551567
   6     -0.000542276968
   7     -0.005513874536
   8     -0.005218966647
   9     -0.006309672783
  10      0.000201926250
  11     -0.001392046677
  12     -0.000065824093
  13     -0.000240878440
  14     -0.001569070970
  15     -0.000132406978
  16     -0.000226156050
  17      0.002232197513
  18     -0.000151960547
  19     -0.000110743394
  20     -0.000172794350
  21      0.002171990857
  22     -0.000315218045
  23      0.002405917393
  24     -0.000048409382
  25     -0.000602257240
  26     -0.000003056685
  27      0.000124849123
  28     -0.000662519865
  29     -0.460184247842
  30     -0.021147289165
  31      0.015307432440
  32      0.000375728772
  33     -0.001065635913
  34      0.000382081843
  35     -0.003090685232
  36      0.002065596414
  37     -0.003368668367
  38      0.000148606186
  39      0.000175865761
  40      0.000531121154
  41     -0.000382533761
  42      0.000189979226
  43      0.873989990661
  44      0.041008108131
  45     -0.031511209775
  46      0.001252002898
  47      0.001791801320
  48      0.001453188907
  49     -0.004683803731
  50     -0.004862673720
  51     -0.005374313368
  52     -0.000099888568
  53      0.000149291439
  54     -0.000398535403
  55      0.000247929854
  56      0.000168052998
 Ene=  -0.19253687102345E+02
 Spin= Alpha
 Occup=    0.000000
   1      0.000000000000
   2      0.000000000000
   3      0.000000000000
   4      0.000000000000
   5      0.000000000000
   6      0.000000000000
   7      0.000000000000
   8      0.000000000000
   9      0.000000000000
  10      0.000000000000
  11      0.000000000000
  12      0.000000000000
  13      0.000000000000
  14      0.000000000000
  15      0.000000000000
  16      0.000000000000
  17      0.000000000000
  18      0.000000000000
  19      0.000000000000
  20      0.000000000000
  21      0.000000000000
  22      0.000000000000
  23      0.000000000000
  24      0.000000000000
  25      0.000000000000
  26      0.000000000000
  27      0.000000000000
  28      0.000000000000
  29      0.000000000000
  30      0.000000000000
  31      0.000000000000
  32      0.000000000000
  33      0.000000000000
  34      0.000000000000
  35      0.000000000000
  36      0.000000000000
  37      0.000000000000
  38      0.000000000000
  39      0.000000000000
  40      0.000000000000
  41      0.000000000000
  42      0.000000000000
  43      0.000000000000
  44      0.000000000000
  45      0.000000000000
  46      0.000000000000
  47      0.000000000000
  48      0.000000000000
  49      0.000000000000
  50      0.000000000000
  51      0.000000000000
  52      0.000000000000
  53      0.000000000000
  54      0.000000000000
  55      0.000000000000
  56      0.000000000000
 Ene=  -0.19253687102345E+02
 Spin= Alpha
 Occup=    1.000000
   1     -0.000454600979
   2     -0.002439645990
   3     -0.009652623849
   4      0.000009992090
   5      0.001012384148
   6      0.000045051375
   7     -0.000196075692
   8     -0.021435854520
   9     -0.000937749179
  10     -0.001717763777
  11      0.000047884262
  12      0.000139736605
  13      0.002935381735
  14      0.000255860353
  15     -0.987369121337
  16     -0.048831077714
  17      0.042530369335
  18      0.000036770437
  19      0.003974880842
  20      0.000174214698
  21     -0.000082376099
  22     -0.008872461575
  23     -0.000389178769
  24      0.000408102835
  25     -0.000012705609
  26     -0.000008646407
  27     -0.000702554258
  28     -0.000061669191
  29     -0.000389652998
  30      0.000597404376
  31     -0.006481192681
  32     -0.000020064761
  33     -0.000266726308
  34     -0.000031226841
  35      0.001298817050
  36      0.000200671476
  37      0.001450998832
  38     -0.000194238729
  39      0.000305277216
  40     -0.000079603530
  41      0.000331984327
  42      0.000359269514
  43     -0.000389711898
  44      0.000595453439
  45     -0.006464162093
  46      0.000015859484
  47     -0.000268087713
  48      0.000008691410
  49     -0.001291298488
  50      0.000354043750
  51     -0.001425219359
  52     -0.000203708549
  53     -0.000282562838
  54     -0.000110541731
  55      0.000394954695
  56     -0.000292329637
 Ene=  -0.10451910627636E+02
 Spin= Alpha
 Occup=    1.000000
   1     -0.986895496696
   2     -0.055855074939
   3      0.000642602460
   4      0.000001771378
   5      0.000456791338
   6      0.000017943359
   7     -0.000033037423
   8     -0.003375547826
   9     -0.000149204842
  10      0.003247838752
  11     -0.000028584102
  12     -0.001583352705
  13     -0.005271465427
  14     -0.000445912639
  15      0.000183827954
  16     -0.000265927810
  17      0.015744026003
  18     -0.000019793275
  19     -0.002110483607
  20     -0.000092746286
  21     -0.000098577518
  22     -0.010721476625
  23     -0.000469578440
  24     -0.000912531159
  25      0.000026200478
  26      0.000075970987
  27      0.001558959696
  28      0.000136633379
  29     -0.000123250665
  30     -0.000376207352
  31      0.005866284098
  32     -0.000566479290
  33      0.001187922923
  34     -0.000590113252
  35     -0.002105344676
  36      0.005944077568
  37     -0.002142170386
  38     -0.000634842093
  39     -0.001514693975
  40      0.000731249932
  41      0.001042854113
  42     -0.001589164274
  43     -0.000123242967
  44     -0.000380555412
  45      0.005849107161
  46      0.000585831472
  47      0.001116932760
  48      0.000689388597
  49      0.002209630319
  50      0.005682730391
  51      0.002649237566
  52     -0.000586542859
  53      0.001479135708
  54      0.000893920284
  55      0.000721953966
  56      0.001729575347
 Ene=  -0.10451910627636E+02
 Spin= Alpha
 Occup=   -0.000000
   1      0.000000000000
   2      0.000000000000
   3      0.000000000000
   4      0.000000000000
   5      0.000000000000
   6      0.000000000000
   7      0.000000000000
   8      0.000000000000
   9      0.000000000000
  10      0.000000000000
  11      0.000000000000
  12      0.000000000000
  13      0.000000000000
  14      0.000000000000
  15      0.000000000000
  16      0.000000000000
  17      0.000000000000
  18      0.000000000000
  19      0.000000000000
  20      0.000000000000
  21      0.000000000000
  22      0.000000000000
  23      0.000000000000
  24      0.000000000000
  25      0.000000000000
  26      0.000000000000
  27      0.000000000000
  28      0.000000000000
  29      0.000000000000
  30      0.000000000000
  31      0.000000000000
  32      0.000000000000
  33      0.000000000000
  34      0.000000000000
  35      0.000000000000
  36      0.000000000000
  37      0.000000000000
  38      0.000000000000
  39      0.000000000000
  40      0.000000000000
  41      0.000000000000
  42      0.000000000000
  43      0.000000000000
  44      0.000000000000
  45      0.000000000000
  46      0.000000000000
  47      0.000000000000
  48      0.000000000000
  49      0.000000000000
  50      0.000000000000
  51      0.000000000000
  52      0.000000000000
  53      0.000000000000
  54      0.000000000000
  55      0.000000000000
  56      0.000000000000
 Ene=  -0.13006311585461E+01
 Spin= Alpha
 Occup=   -0.000000
   1      0.000000000000
   2      0.000000000000
   3      0.000000000000
   4      0.000000000000
   5      0.000000000000
   6      0.000000000000
   7      0.000000000000
   8      0.000000000000
   9      0.000000000000
  10      0.000000000000
  11      0.000000000000
  12      0.000000000000
  13      0.000000000000
  14      0.000000000000
  15      0.000000000000
  16      0.000000000000
  17      0.000000000000
  18      0.000000000000
  19      0.000000000000
  20      0.000000000000
  21      0.000000000000
  22      0.000000000000
  23      0.000000000000
  24      0.000000000000
  25      0.000000000000
  26      0.000000000000
  27      0.000000000000
  28      0.000000000000
  29      0.000000000000
  30      0.000000000000
  31      0.000000000000
  32      0.000000000000
  33      0.000000000000
  34      0.000000000000
  35      0.000000000000
  36      0.000000000000
  37      0.000000000000
  38      0.000000000000
  39      0.000000000000
  40      0.000000000000
  41      0.000000000000
  42      0.000000000000
  43      0.000000000000
  44      0.000000000000
  45      0.000000000000
  46      0.000000000000
  47      0.000000000000
  48      0.000000000000
  49      0.000000000000
  50      0.000000000000
  51      0.000000000000
  52      0.000000000000
  53      0.000000000000
  54      0.000000000000
  55      0.000000000000
  56      0.000000000000
 Ene=  -0.13006311585461E+01
 Spin= Alpha
 Occup=    1.000000
   1      0.143566491412
   2     -0.279719557782
   3      0.019623441661
   4      0.001269126932
   5      0.144655827840
   6      0.006285726743
   7     -0.000279420544
   8     -0.029879759597
   9     -0.001317292365
  10      0.016901101165
  11     -0.000162770838
  12     -0.007995116457
  13     -0.027482931692
  14     -0.002332712550
  15      0.034729978756
  16     -0.066440929635
  17     -0.017387627749
  18      0.000255157219
  19      0.028155255378
  20      0.001229998495
  21      0.000040786420
  22      0.004250802517
  23      0.000189858965
  24      0.000715022705
  25     -0.000039842486
  26      0.000386003178
  27     -0.001315638293
  28     -0.000119146636
  29      0.171724582012
  30     -0.334901085887
  31     -0.199179754596
  32      0.079418068501
  33     -0.074691630194
  34      0.085833412007
  35      0.028337309008
  36     -0.026381965095
  37      0.030635424982
  38     -0.000048803489
  39      0.005809970094
  40     -0.014710028731
  41      0.002844184210
  42      0.006110683320
  43      0.171496923508
  44     -0.334457155040
  45     -0.198969292930
  46     -0.080663897790
  47     -0.065222819470
  48     -0.091931526939
  49     -0.028795681781
  50     -0.023040429123
  51     -0.032809983288
  52     -0.000221846684
  53     -0.004417881032
  54     -0.015266094991
  55      0.003953995304
  56     -0.005226274039
 Ene=  -0.11377573823080E+01
 Spin= Alpha
 Occup=    1.000000
   1     -0.120637982018
   2      0.240561968319
   3      0.023598951542
   4      0.002502714350
   5      0.273346142103
   6      0.011961530286
   7      0.000180684014
   8      0.020061073622
   9      0.000874886780
  10     -0.010857934833
  11      0.000437873659
  12     -0.001863605029
  13      0.019134155900
  14      0.001702224160
  15     -0.254290827887
  16      0.499360196707
  17      0.242201627463
  18     -0.001669659178
  19     -0.181016182290
  20     -0.007930539088
  21     -0.000254334531
  22     -0.027901708996
  23     -0.001218934111
  24     -0.008384012713
  25      0.000322911195
  26     -0.001201039931
  27      0.014724558520
  28      0.001303550776
  29      0.039924079601
  30     -0.081512903482
  31     -0.041678534295
  32      0.022734962552
  33      0.000781088088
  34      0.025315765534
  35      0.007086630855
  36      0.002721733421
  37      0.007974664983
  38     -0.001519789846
  39      0.000477003525
  40     -0.004643123780
  41      0.003588916713
  42      0.000598796652
  43      0.039853940883
  44     -0.081369352184
  45     -0.041627201343
  46     -0.022672677310
  47      0.003456303464
  48     -0.025108043538
  49     -0.007029511285
  50      0.003538623920
  51     -0.007701409967
  52     -0.001526682947
  53      0.000052186722
  54     -0.004664066276
  55      0.003634774347
  56      0.000127986189
 Ene=  -0.11377573823080E+01
 Spin= Alpha
 Occup=   -0.000000
   1      0.000000000000
   2      0.000000000000
   3      0.000000000000
   4      0.000000000000
   5      0.000000000000
   6      0.000000000000
   7      0.000000000000
   8      0.000000000000
   9      0.000000000000
  10      0.000000000000
  11      0.000000000000
  12      0.000000000000
  13      0.000000000000
  14      0.000000000000
  15      0.000000000000
  16      0.000000000000
  17      0.000000000000
  18      0.000000000000
  19      0.000000000000
  20      0.000000000000
  21      0.000000000000
  22      0.000000000000
  23      0.000000000000
  24      0.000000000000
  25      0.000000000000
  26      0.000000000000
  27      0.000000000000
  28      0.000000000000
  29      0.000000000000
  30      0.000000000000
  31      0.000000000000
  32      0.000000000000
  33      0.000000000000
  34      0.000000000000
  35      0.000000000000
  36      0.000000000000
  37      0.000000000000
  38      0.000000000000
  39      0.000000000000
  40      0.000000000000
  41      0.000000000000
  42      0.000000000000
  43      0.000000000000
  44      0.000000000000
  45      0.000000000000
  46      0.000000000000
  47      0.000000000000
  48      0.000000000000
  49      0.000000000000
  50      0.000000000000
  51      0.000000000000
  52      0.000000000000
  53      0.000000000000
  54      0.000000000000
  55      0.000000000000
  56      0.000000000000
 Ene=  -0.97975949939805E+00
 Spin= Alpha
 Occup=    1.000000
   1      0.000060766027
   2     -0.000121336966
   3     -0.000031556989
   4     -0.140720007605
   5      0.008258667570
   6     -0.156266322104
   7     -0.009355148560
   8      0.000596762559
   9     -0.010387099485
  10      0.000385874524
  11      0.024023329193
  12      0.001303130950
  13     -0.002570713069
  14      0.026630628841
  15      0.000004154076
  16     -0.000004419002
  17     -0.000042291376
  18     -0.021083131954
  19      0.001221814675
  20     -0.023412857175
  21     -0.008448020123
  22      0.000499479137
  23     -0.009381187422
  24      0.000068726441
  25      0.004256483729
  26      0.000230281607
  27     -0.000454870136
  28      0.004718479141
  29      0.212159252933
  30     -0.436157072213
  31     -0.308964745634
  32     -0.010577866788
  33     -0.091110822477
  34     -0.014836074224
  35     -0.000177224849
  36     -0.039954937903
  37     -0.001543062878
  38      0.003785083634
  39      0.002571225603
  40      0.000738985979
  41     -0.006873070003
  42      0.002427715531
  43     -0.212410464124
  44      0.436647738701
  45      0.309453362032
  46     -0.008722868610
  47      0.092065096777
  48     -0.006603211729
  49      0.000664943136
  50      0.039929275174
  51      0.002084890822
  52     -0.003688143003
  53      0.002865855093
  54     -0.000407285730
  55      0.006267305831
  56      0.003599208601
 Ene=  -0.97975949939805E+00
 Spin= Alpha
 Occup=    0.000000
   1      0.000000000000
   2      0.000000000000
   3      0.000000000000
   4      0.000000000000
   5      0.000000000000
   6      0.000000000000
   7      0.000000000000
   8      0.000000000000
   9      0.000000000000
  10      0.000000000000
  11      0.000000000000
  12      0.000000000000
  13      0.000000000000
  14      0.000000000000
  15      0.000000000000
  16      0.000000000000
  17      0.000000000000
  18      0.000000000000
  19      0.000000000000
  20      0.000000000000
  21      0.000000000000
  22      0.000000000000
  23      0.000000000000
  24      0.000000000000
  25      0.000000000000
  26      0.000000000000
  27      0.000000000000
  28      0.000000000000
  29      0.000000000000
  30      0.000000000000
  31      0.000000000000
  32      0.000000000000
  33      0.000000000000
  34      0.000000000000
  35      0.000000000000
  36      0.000000000000
  37      0.000000000000
  38      0.000000000000
  39      0.000000000000
  40      0.000000000000
  41      0.000000000000
  42      0.000000000000
  43      0.000000000000
  44      0.000000000000
  45      0.000000000000
  46      0.000000000000
  47      0.000000000000
  48      0.000000000000
  49      0.000000000000
  50      0.000000000000
  51      0.000000000000
  52      0.000000000000
  53      0.000000000000
  54      0.000000000000
  55      0.000000000000
  56      0.000000000000
 Ene=  -0.64912758019527E+00
 Spin= Alpha
 Occup=    1.000000
   1      0.154272224402
   2     -0.382330925876
   3     -0.050338515383
   4      0.001719144683
   5      0.190545332803
   6      0.008316007226
   7      0.000104654711
   8      0.008822955805
   9      0.000406906083
  10      0.005208066878
  11      0.000197109739
  12     -0.007990628967
  13     -0.007301113765
  14     -0.000571852247
  15     -0.068634215785
  16      0.142770119190
  17      0.134930317360
  18      0.000708500474
  19      0.076963766143
  20      0.003372313845
  21      0.000350639838
  22      0.038429628357
  23      0.001681983635
  24      0.001819117273
  25     -0.000051097600
  26     -0.000169007056
  27     -0.003104016092
  28     -0.000272167307
  29     -0.102296143042
  30      0.209462412222
  31      0.231585757101
  32      0.069919934046
  33     -0.311991951471
  34      0.067269380532
  35      0.025364846967
  36     -0.158956699702
  37      0.022860718281
  38      0.004596265544
  39      0.012557481693
  40      0.001018156650
  41     -0.009010902945
  42      0.013415587912
  43     -0.102074806922
  44      0.208990429348
  45      0.231039583766
  46     -0.075375646323
  47     -0.303045282477
  48     -0.094064735771
  49     -0.028185222465
  50     -0.155637116840
  51     -0.036599772725
  52      0.004178707296
  53     -0.012853300586
  54     -0.000352196768
  55     -0.006275911074
  56     -0.014751840004
 Ene=  -0.64912758019527E+00
 Spin= Alpha
 Occup=   -0.000000
   1      0.000000000000
   2      0.000000000000
   3      0.000000000000
   4      0.000000000000
   5      0.000000000000
   6      0.000000000000
   7      0.000000000000
   8      0.000000000000
   9      0.000000000000
  10      0.000000000000
  11      0.000000000000
  12      0.000000000000
  13      0.000000000000
  14      0.000000000000
  15      0.000000000000
  16      0.000000000000
  17      0.000000000000
  18      0.000000000000
  19      0.000000000000
  20      0.000000000000
  21      0.000000000000
  22      0.000000000000
  23      0.000000000000
  24      0.000000000000
  25      0.000000000000
  26      0.000000000000
  27      0.000000000000
  28      0.000000000000
  29      0.000000000000
  30      0.000000000000
  31      0.000000000000
  32      0.000000000000
  33      0.000000000000
  34      0.000000000000
  35      0.000000000000
  36      0.000000000000
  37      0.000000000000
  38      0.000000000000
  39      0.000000000000
  40      0.000000000000
  41      0.000000000000
  42      0.000000000000
  43      0.000000000000
  44      0.000000000000
  45      0.000000000000
  46      0.000000000000
  47      0.000000000000
  48      0.000000000000
  49      0.000000000000
  50      0.000000000000
  51      0.000000000000
  52      0.000000000000
  53      0.000000000000
  54      0.000000000000
  55      0.000000000000
  56      0.000000000000
 Ene=  -0.58449122438155E+00
 Spin= Alpha
 Occup=   -0.000000
   1      0.000000000000
   2      0.000000000000
   3      0.000000000000
   4      0.000000000000
   5      0.000000000000
   6      0.000000000000
   7      0.000000000000
   8      0.000000000000
   9      0.000000000000
  10      0.000000000000
  11      0.000000000000
  12      0.000000000000
  13      0.000000000000
  14      0.000000000000
  15      0.000000000000
  16      0.000000000000
  17      0.000000000000
  18      0.000000000000
  19      0.000000000000
  20      0.000000000000
  21      0.000000000000
  22      0.000000000000
  23      0.000000000000
  24      0.000000000000
  25      0.000000000000
  26      0.000000000000
  27      0.000000000000
  28      0.000000000000
  29      0.000000000000
  30      0.000000000000
  31      0.000000000000
  32      0.000000000000
  33      0.000000000000
  34      0.000000000000
  35      0.000000000000
  36      0.000000000000
  37      0.000000000000
  38      0.000000000000
  39      0.000000000000
  40      0.000000000000
  41      0.000000000000
  42      0.000000000000
  43      0.000000000000
  44      0.000000000000
  45      0.000000000000
  46      0.000000000000
  47      0.000000000000
  48      0.000000000000
  49      0.000000000000
  50      0.000000000000
  51      0.000000000000
  52      0.000000000000
  53      0.000000000000
  54      0.000000000000
  55      0.000000000000
  56      0.000000000000
 Ene=  -0.58449122438155E+00
 Spin= Alpha
 Occup=    1.000000
   1     -0.000003383390
   2      0.000007055335
   3      0.000008488823
   4     -0.271317878875
   5     -0.008197316242
   6      0.243891397242
   7     -0.103671804772
   8     -0.003137105510
   9      0.093191973287
  10      0.000221283512
  11      0.014950325481
  12      0.000532221109
  13      0.001034359663
  14     -0.013415895491
  15     -0.000001938989
  16      0.000002722242
  17      0.000009881726
  18     -0.154707720760
  19     -0.004659904728
  20      0.139069659739
  21     -0.077916350898
  22     -0.002348367752
  23      0.070040334873
  24      0.000223187675
  25      0.013968518331
  26      0.000495983655
  27      0.000970293722
  28     -0.012534665975
  29     -0.000002603053
  30      0.000005355414
  31      0.000005190339
  32     -0.244174184762
  33     -0.007394973835
  34      0.219509418627
  35     -0.144004520684
  36     -0.004360791717
  37      0.129457899588
  38      0.016370189717
  39     -0.010527226675
  40      0.001653250355
  41      0.008797154322
  42      0.010028462205
  43     -0.000002360598
  44      0.000004726576
  45      0.000005006064
  46     -0.243797974608
  47     -0.007380905614
  48      0.219136169737
  49     -0.143791668908
  50     -0.004352820842
  51      0.129246647974
  52     -0.016687264596
  53     -0.009974036370
  54     -0.002384079858
  55     -0.010219919707
  56      0.008368624460
 Ene=  -0.55626569175406E+00
 Spin= Alpha
 Occup=    0.000000
   1      0.000000000000
   2      0.000000000000
   3      0.000000000000
   4      0.000000000000
   5      0.000000000000
   6      0.000000000000
   7      0.000000000000
   8      0.000000000000
   9      0.000000000000
  10      0.000000000000
  11      0.000000000000
  12      0.000000000000
  13      0.000000000000
  14      0.000000000000
  15      0.000000000000
  16      0.000000000000
  17      0.000000000000
  18      0.000000000000
  19      0.000000000000
  20      0.000000000000
  21      0.000000000000
  22      0.000000000000
  23      0.000000000000
  24      0.000000000000
  25      0.000000000000
  26      0.000000000000
  27      0.000000000000
  28      0.000000000000
  29      0.000000000000
  30      0.000000000000
  31      0.000000000000
  32      0.000000000000
  33      0.000000000000
  34      0.000000000000
  35      0.000000000000
  36      0.000000000000
  37      0.000000000000
  38      0.000000000000
  39      0.000000000000
  40      0.000000000000
  41      0.000000000000