[Molden Format]
[Title]
generated by TRESC, real part2 of MOs of job twisted_C2H4
 
[Atoms] AU
 C   1   6    0.0000000000    0.0000000000    1.3668709329
 H   2   1    0.0000000000    1.7631351343    2.4609882652
 H   3   1    0.0000000000   -1.7631351343    2.4609882652
 C   4   6    0.0000000000    0.0000000000   -1.3668709329
 H   5   1    1.7631351343    0.0000000000   -2.4609882652
 H   6   1   -1.7631351343    0.0000000000   -2.4609882652
[GTO]
  1 0
 s  5 1.0
     1238.4016938000        0.0059599745
      186.2900499200        0.0422621111
       42.2511763500        0.1866575214
       11.6765579300        0.4675815865
        3.5930506500        0.4422897287
 s  1 1.0
        0.4024514700        1.0000000000
 s  1 1.0
        0.1309018300        1.0000000000
 p  3 1.0
        9.4680970600        0.0570294585
        2.0103545100        0.3130471495
        0.5477100500        0.7605135301
 p  1 1.0
        0.1526861400        1.0000000000
 d  1 1.0
        0.8000000000        1.0000000000
 
  2 0
 s  3 1.0
       13.0107010000        0.0391282527
        1.9622572000        0.2855840539
        0.4445379600        0.7689908602
 s  1 1.0
        0.1219496200        1.0000000000
 p  1 1.0
        0.8000000000        1.0000000000
 
  3 0
 s  3 1.0
       13.0107010000        0.0391282527
        1.9622572000        0.2855840539
        0.4445379600        0.7689908602
 s  1 1.0
        0.1219496200        1.0000000000
 p  1 1.0
        0.8000000000        1.0000000000
 
  4 0
 s  5 1.0
     1238.4016938000        0.0059599745
      186.2900499200        0.0422621111
       42.2511763500        0.1866575214
       11.6765579300        0.4675815865
        3.5930506500        0.4422897287
 s  1 1.0
        0.4024514700        1.0000000000
 s  1 1.0
        0.1309018300        1.0000000000
 p  3 1.0
        9.4680970600        0.0570294585
        2.0103545100        0.3130471495
        0.5477100500        0.7605135301
 p  1 1.0
        0.1526861400        1.0000000000
 d  1 1.0
        0.8000000000        1.0000000000
 
  5 0
 s  3 1.0
       13.0107010000        0.0391282527
        1.9622572000        0.2855840539
        0.4445379600        0.7689908602
 s  1 1.0
        0.1219496200        1.0000000000
 p  1 1.0
        0.8000000000        1.0000000000
 
  6 0
 s  3 1.0
       13.0107010000        0.0391282527
        1.9622572000        0.2855840539
        0.4445379600        0.7689908602
 s  1 1.0
        0.1219496200        1.0000000000
 p  1 1.0
        0.8000000000        1.0000000000
 
[5D]
[7F]
[9G]
[MO]
 Ene=   0.69606432496224E+00
 Spin= Alpha
 Occup=    0.000000
   1     -0.000258491515
   2      0.002234476592
   3     -0.016970517047
   4      0.000000007370
   5     -0.000000071207
   6     -0.003173179849
   7     -0.000000043558
   8      0.000000190116
   9      0.011848359649
  10     -0.000321389314
  11      0.000000004570
  12      0.000000005053
  13     -0.000398886341
  14      0.000000004013
  15      0.001563121576
  16     -0.001865142189
  17      0.000000003077
  18      0.000294311218
  19     -0.000055620041
  20      0.001563119247
  21     -0.001864912675
  22     -0.000000002220
  23     -0.000294297293
  24     -0.000055630144
  25      0.000258822398
  26     -0.002236424275
  27      0.016975501861
  28     -0.000000110289
  29      0.000000009567
  30     -0.003172171871
  31      0.000000233576
  32     -0.000000051597
  33      0.011846448931
  34      0.000321416387
  35     -0.000000015554
  36      0.000000000779
  37     -0.000398695563
  38      0.000000000368
  39     -0.001562493364
  40      0.001862386414
  41     -0.000294054094
  42     -0.000000001171
  43     -0.000055730070
  44     -0.001562569174
  45      0.001862742910
  46      0.000294080048
  47     -0.000000002244
  48     -0.000055713363
 Ene=   0.69606998538255E+00
 Spin= Alpha
 Occup=    0.000000
   1     -0.000411189852
   2      0.002420168099
   3     -0.006208771130
   4     -0.000000005704
   5      0.000000079073
   6      0.001251167137
   7     -0.000000058358
   8     -0.000000194532
   9     -0.002377864687
  10     -0.000034763286
  11     -0.000000002241
  12     -0.000000007100
  13      0.000239057634
  14     -0.000000001092
  15     -0.000735966283
  16      0.003067429865
  17     -0.000000002372
  18     -0.000296936003
  19     -0.000116468775
  20     -0.000735953578
  21      0.003067182542
  22     -0.000000003736
  23      0.000296919992
  24     -0.000116457900
  25     -0.000411001197
  26      0.002418556098
  27     -0.006196593371
  28     -0.000000108754
  29      0.000000006860
  30     -0.001253457270
  31      0.000000300704
  32      0.000000032181
  33      0.002386384200
  34     -0.000034531061
  35     -0.000000007428
  36      0.000000001166
  37     -0.000239340468
  38      0.000000000000
  39     -0.000737074473
  40      0.003068460622
  41     -0.000297126198
  42      0.000000001327
  43      0.000116415315
  44     -0.000737071873
  45      0.003068833356
  46      0.000297154072
  47     -0.000000000534
  48      0.000116433045
 Ene=   0.73640849572359E+00
 Spin= Alpha
 Occup=    0.000000
   1     -0.060418801780
   2      0.464830475436
   3     -3.526813502564
   4      0.000000000300
   5     -0.000000038139
   6     -0.750732946612
   7     -0.000000016125
   8      0.000000105307
   9      2.611092476878
  10     -0.091736479742
  11      0.000000002817
  12      0.000000000844
  13     -0.081978460711
  14      0.000000003653
  15      0.283448738814
  16     -0.414817550011
  17      0.000000002057
  18      0.073433751156
  19     -0.011973810676
  20      0.283448758173
  21     -0.414817447277
  22     -0.000000002236
  23     -0.073433744429
  24     -0.011973814194
  25      0.060418792123
  26     -0.464830418496
  27      3.526813370279
  28     -0.000000064584
  29      0.000000004030
  30     -0.750732958743
  31      0.000000124901
  32     -0.000000029770
  33      2.611092517808
  34      0.091736484042
  35     -0.000000011812
  36      0.000000001856
  37     -0.081978468647
  38      0.000000000896
  39     -0.283448731484
  40      0.414817457279
  41     -0.073433746103
  42     -0.000000001115
  43     -0.011973820907
  44     -0.283448783149
  45      0.414817660870
  46      0.073433763399
  47     -0.000000004900
  48     -0.011973806718
 Ene=   0.75120497283324E+00
 Spin= Alpha
 Occup=    0.000000
   1      0.000000000928
   2     -0.000000004739
   3     -0.000000006239
   4      0.000579810358
   5     -0.000000011334
   6      0.000000000858
   7      0.000251660437
   8      0.000000023800
   9      0.000000004263
  10      0.000000001938
  11     -0.000079372529
  12      0.000000000076
  13     -0.000000000740
  14      0.000000000281
  15      0.000000006697
  16     -0.000000020730
  17      0.000036777798
  18      0.000000001861
  19      0.000000001226
  20     -0.000000001995
  21      0.000000015017
  22      0.000036778180
  23      0.000000001483
  24     -0.000000000131
  25     -0.000000000294
  26     -0.000000000826
  27      0.000000015514
  28      0.001908343768
  29     -0.000000002489
  30     -0.000000002699
  31     -0.004444913205
  32     -0.000000002746
  33      0.000000010994
  34     -0.000000000445
  35      0.000301563773
  36     -0.000000000245
  37      0.000000004569
  38      0.000000000054
  39     -0.000321108550
  40      0.003185276462
  41     -0.000310384006
  42      0.000000001260
  43      0.000186471453
  44      0.000321112212
  45     -0.003185284297
  46     -0.000310384482
  47      0.000000000793
  48     -0.000186477535
 Ene=   0.11751869260757E+01
 Spin= Alpha
 Occup=    0.000000
   1     -0.000001976536
   2     -0.000002800156
   3      0.000019860584
   4      0.000000003501
   5      0.000000000157
   6      0.000020521100
   7     -0.000000001465
   8      0.000000004074
   9      0.000031855643
  10     -0.000000505535
  11     -0.000000000356
  12     -0.000000000369
  13     -0.000029703727
  14     -0.000040637465
  15     -0.000041539049
  16      0.000001946911
  17     -0.000041825773
  18      0.000002750207
  19     -0.000011079980
  20     -0.000041536934
  21      0.000001949918
  22      0.000041827727
  23     -0.000002749806
  24     -0.000011079322
  25      0.000001977388
  26      0.000002795005
  27     -0.000019860555
  28      0.000000002775
  29     -0.000000000049
  30      0.000020523165
  31     -0.000000010639
  32     -0.000000003658
  33      0.000031857826
  34      0.000000505880
  35      0.000000002511
  36     -0.000000000224
  37     -0.000029699084
  38     -0.000040667415
  39      0.000041541415
  40     -0.000001942313
  41     -0.000002748523
  42     -0.000041860786
  43     -0.000011076396
  44      0.000041538488
  45     -0.000001953758
  46      0.000002756664
  47      0.000041866206
  48     -0.000011083910
 Ene=   0.12104571631974E+01
 Spin= Alpha
 Occup=    0.000000
   1      0.000000000464
   2     -0.000000001979
   3     -0.000000033160
   4      0.000003414839
   5     -0.000000002298
   6     -0.000000001077
   7     -0.000013353846
   8      0.000000005130
   9      0.000000022098
  10      0.000000000150
  11      0.000029422329
  12     -0.000000000197
  13     -0.000000001628
  14      0.000000015696
  15      0.000000001847
  16     -0.000000006953
  17      0.000010029010
  18      0.000000003091
  19     -0.000000000581
  20      0.000000000346
  21      0.000000000385
  22      0.000009989135
  23      0.000000001106
  24      0.000000002111
  25     -0.000000000326
  26      0.000000000517
  27      0.000000027321
  28     -0.000008575846
  29     -0.000000002733
  30     -0.000000005302
  31     -0.000002092476
  32     -0.000000001205
  33      0.000000035826
  34      0.000000002799
  35      0.000005592537
  36     -0.000000001689
  37     -0.000000002805
  38     -0.000000015116
  39      0.000010778146
  40     -0.000001578010
  41      0.000012451959
  42     -0.000000018318
  43      0.000022921745
  44     -0.000010776586
  45      0.000001588798
  46      0.000012456363
  47      0.000000023417
  48     -0.000022937566
 Ene=   0.12196905572498E+01
 Spin= Alpha
 Occup=    0.000000
   1     -0.000005216427
   2      0.000025069726
   3      0.000011071519
   4     -0.000000002562
   5     -0.000000000572
   6      0.000005585056
   7     -0.000000000098
   8      0.000000003800
   9      0.000028928787
  10     -0.000002340696
  11      0.000000000483
  12     -0.000000000364
  13     -0.000021353678
  14     -0.000018417647
  15     -0.000031840300
  16      0.000003673817
  17     -0.000024842693
  18      0.000004340360
  19     -0.000009072165
  20     -0.000031839319
  21      0.000003677177
  22      0.000024841550
  23     -0.000004340713
  24     -0.000009072020
  25     -0.000005216875
  26      0.000025072787
  27      0.000011056607
  28     -0.000000004242
  29     -0.000000000711
  30     -0.000005588630
  31      0.000000013328
  32     -0.000000002406
  33     -0.000028939863
  34     -0.000002340409
  35     -0.000000003589
  36     -0.000000000096
  37      0.000021350798
  38      0.000018449464
  39     -0.000031844513
  40      0.000003669150
  41      0.000004338166
  42      0.000024879215
  43      0.000009069393
  44     -0.000031840952
  45      0.000003681952
  46     -0.000004347527
  47     -0.000024875119
  48      0.000009078189
 Ene=   0.12510685010848E+01
 Spin= Alpha
 Occup=    0.000000
   1      0.000000000735
   2     -0.000000003851
   3     -0.000000034204
   4     -0.000000127400
   5     -0.000000000754
   6      0.000000000314
   7      0.000021826749
   8     -0.000000014297
   9      0.000000021933
  10     -0.000000000587
  11     -0.000012739488
  12     -0.000000003516
  13     -0.000000002082
  14     -0.000000002068
  15      0.000000007909
  16      0.000000001367
  17      0.000000354310
  18      0.000000002910
  19     -0.000000002586
  20     -0.000000006719
  21     -0.000000006980
  22      0.000000359032
  23      0.000000002215
  24      0.000000003913
  25     -0.000000000657
  26      0.000000002064
  27      0.000000025351
  28     -0.000007408767
  29      0.000000002001
  30     -0.000000005087
  31     -0.000067585576
  32      0.000000001122
  33      0.000000039366
  34      0.000000002796
  35      0.000007618147
  36      0.000000002359
  37     -0.000000003792
  38     -0.000000002278
  39      0.000032973401
  40      0.000016990974
  41      0.000011262701
  42     -0.000000000055
  43      0.000014703526
  44     -0.000032970643
  45     -0.000016977802
  46      0.000011268475
  47      0.000000004082
  48     -0.000014722152
 Ene=   0.14911258076255E+01
 Spin= Alpha
 Occup=    0.000000
   1     -0.000000001647
   2      0.000000010119
   3      0.000000043947
   4     -0.009438102037
   5      0.000001472091
   6     -0.000000004740
   7      0.318368799164
   8     -0.000086969450
   9     -0.000000029983
  10      0.000000000351
  11     -0.327687830520
  12     -0.000019351465
  13      0.000000004709
  14     -0.000000000926
  15      0.000035749692
  16      0.000009572473
  17     -0.286548790245
  18     -0.000061182709
  19      0.000105911016
  20     -0.000035746574
  21     -0.000009566107
  22     -0.286548799109
  23     -0.000061182922
  24     -0.000105906139
  25     -0.000000000985
  26      0.000000003743
  27     -0.000000066561
  28      0.003864623520
  29     -0.000003590125
  30      0.000000004296
  31     -0.228566885549
  32      0.000121131048
  33     -0.000000045999
  34     -0.000000004408
  35      0.050861826869
  36      0.000124674815
  37      0.000000005379
  38     -0.000000000006
  39      0.093954519860
  40      0.025145206740
  41     -0.160817390821
  42     -0.000109022959
  43     -0.278370157836
  44     -0.093954531202
  45     -0.025145190686
  46     -0.160817380331
  47     -0.000109024646
  48      0.278370202181
 Ene=   0.14911471133804E+01
 Spin= Alpha
 Occup=    0.000000
   1      0.000000001478
   2     -0.000000010203
   3     -0.000000027842
   4      0.009435997416
   5      0.000001990383
   6      0.000000003189
   7     -0.318337795478
   8     -0.000117213874
   9      0.000000027727
  10     -0.000000001002
  11      0.327664928901
  12     -0.000026074469
  13     -0.000000007140
  14     -0.000000001551
  15      0.000048168287
  16      0.000012893137
  17      0.286528658621
  18     -0.000082475980
  19      0.000142763106
  20     -0.000048175712
  21     -0.000012901688
  22      0.286528657666
  23     -0.000082475855
  24     -0.000142770994
  25     -0.000000000299
  26      0.000000004679
  27      0.000000052802
  28     -0.003883241348
  29     -0.000004839593
  30     -0.000000006454
  31      0.228535963662
  32      0.000163275693
  33      0.000000035170
  34      0.000000003129
  35     -0.050835311430
  36      0.000168062430
  37     -0.000000011017
  38     -0.000000000503
  39     -0.093920063458
  40     -0.025148011497
  41      0.160796237156
  42     -0.000146960749
  43      0.278345336824
  44      0.093920069421
  45      0.025147995623
  46      0.160796219059
  47     -0.000146961588
  48     -0.278345377558
 Ene=   0.15137916576012E+01
 Spin= Alpha
 Occup=    0.000000
   1     -0.000011711611
   2      0.000059701085
   3      0.000123331444
   4     -0.000000000627
   5     -0.000000000225
   6     -0.000016859127
   7     -0.000000055026
   8     -0.000000005882
   9     -0.000135418007
  10      0.000022844346
  11      0.000000051048
  12     -0.000000000473
  13      0.000018191000
  14     -0.000000000455
  15      0.000004487324
  16      0.000013679375
  17      0.000000051452
  18      0.000002658018
  19      0.000038166157
  20      0.000004484172
  21      0.000013676648
  22      0.000000050618
  23     -0.000002677524
  24      0.000038140280
  25      0.000011711107
  26     -0.000059695789
  27     -0.000123306617
  28      0.000000006842
  29      0.000000000778
  30     -0.000016840888
  31      0.000000043275
  32      0.000000011430
  33     -0.000135464276
  34     -0.000022855414
  35     -0.000000003674
  36      0.000000013850
  37      0.000018203546
  38      0.000000002804
  39     -0.000004511562
  40     -0.000013698445
  41     -0.000002627372
  42     -0.000000010871
  43      0.000038218331
  44     -0.000004476856
  45     -0.000013676931
  46      0.000002698722
  47     -0.000000013061
  48      0.000038136641
 Ene=   0.15138121180160E+01
 Spin= Alpha
 Occup=    0.000000
   1     -0.000011451621
   2      0.000081175694
   3      0.000024800162
   4     -0.000000000659
   5     -0.000000000271
   6     -0.000039176094
   7     -0.000000061226
   8      0.000000008247
   9      0.000121336806
  10     -0.000070931876
  11      0.000000055897
  12      0.000000001702
  13      0.000019632229
  14     -0.000000001768
  15     -0.000022969292
  16     -0.000021535570
  17      0.000000048157
  18      0.000034112387
  19     -0.000048597042
  20     -0.000022962288
  21     -0.000021535550
  22      0.000000049492
  23     -0.000034099904
  24     -0.000048573380
  25     -0.000011449775
  26      0.000081167764
  27      0.000024736616
  28     -0.000000005434
  29      0.000000001518
  30      0.000039172079
  31      0.000000072708
  32     -0.000000013797
  33     -0.000121393717
  34     -0.000070936872
  35     -0.000000011673
  36     -0.000000014433
  37     -0.000019629602
  38     -0.000000000559
  39     -0.000022996805
  40     -0.000021552584
  41      0.000034114923
  42      0.000000011417
  43      0.000048627946
  44     -0.000022942403
  45     -0.000021527133
  46     -0.000034103187
  47      0.000000011916
  48      0.000048566022
 Ene=   0.16131308339959E+01
 Spin= Alpha
 Occup=    0.000000
   1      0.040494928423
   2     -0.278815808661
   3     -0.275381392141
   4      0.000000004573
   5     -0.000000028011
   6      0.247031024410
   7      0.000000031002
   8      0.000000212220
   9     -0.743242683866
  10      0.321333425035
  11     -0.000000017570
  12      0.000000029301
  13      0.061567016792
  14      0.000000003285
  15      0.177195045535
  16      0.120950635340
  17     -0.000000024663
  18     -0.128450670047
  19      0.386625608289
  20      0.177195181262
  21      0.120950754739
  22     -0.000000018965
  23      0.128450525764
  24      0.386625511067
  25      0.040494912182
  26     -0.278815693840
  27     -0.275381328898
  28     -0.000000003912
  29     -0.000000006212
  30     -0.247031011363
  31     -0.000000063333
  32     -0.000000082642
  33      0.743242911170
  34      0.321333428456
  35      0.000000005973
  36     -0.000000034697
  37     -0.061567111911
  38      0.000000003135
  39      0.177195189600
  40      0.120950751281
  41     -0.128450588131
  42      0.000000042819
  43     -0.386625637447
  44      0.177195139869
  45      0.120950713805
  46      0.128450598956
  47      0.000000042528
  48     -0.386625655525
 Ene=   0.16227957932476E+01
 Spin= Alpha
 Occup=    0.000000
   1      0.000000001297
   2     -0.000000009393
   3     -0.000000029719
   4     -0.000095970734
   5      0.000000007239
   6      0.000000001595
   7     -0.001001667348
   8     -0.000000051861
   9      0.000000035694
  10     -0.000000001961
  11      0.000490845213
  12     -0.000000010616
  13     -0.000000010167
  14     -0.000000000160
  15      0.000000012427
  16      0.000000009466
  17      0.000492666825
  18      0.000000017804
  19     -0.000000018453
  20     -0.000000023913
  21     -0.000000017973
  22      0.000492667691
  23      0.000000016468
  24      0.000000001470
  25     -0.000000001858
  26      0.000000012140
  27      0.000000022291
  28     -0.000412718433
  29      0.000000000101
  30     -0.000000003092
  31      0.002655676496
  32      0.000000019454
  33      0.000000044293
  34      0.000000003050
  35     -0.000369562978
  36      0.000000010735
  37     -0.000000012675
  38     -0.000000000346
  39     -0.000837628845
  40     -0.000726961724
  41     -0.000974668192
  42     -0.000000007553
  43     -0.000583917554
  44      0.000837640090
  45      0.000726976117
  46     -0.000974666230
  47     -0.000000008255
  48      0.000583891607
 Ene=   0.16290907374573E+01
 Spin= Alpha
 Occup=    0.000000
   1     -0.000000004372
   2      0.000000030813
   3      0.000000061254
   4     -0.022395055171
   5      0.000002092057
   6      0.000000005440
   7     -0.407568353346
   8     -0.000014529492
   9     -0.000000146632
  10      0.000000020074
  11      0.196124942118
  12     -0.000002169059
  13      0.000000039233
  14     -0.000000003245
  15      0.000004642511
  16      0.000004125419
  17      0.201938284405
  18      0.000004772079
  19     -0.000002981359
  20     -0.000004586388
  21     -0.000004086937
  22      0.201938279875
  23      0.000004779998
  24      0.000003087414
  25      0.000000006901
  26     -0.000000051501
  27     -0.000000094738
  28     -0.150182733393
  29      0.000000311869
  30     -0.000000011142
  31      1.042844826679
  32      0.000005678489
  33     -0.000000089391
  34      0.000000008781
  35     -0.155655522279
  36      0.000002732115
  37      0.000000038788
  38     -0.000000000789
  39     -0.331162696767
  40     -0.294741808698
  41     -0.342759145046
  42     -0.000002812884
  43     -0.217755011372
  44      0.331162665837
  45      0.294741803026
  46     -0.342759120855
  47     -0.000002814186
  48      0.217755070308
 Ene=   0.16290974958361E+01
 Spin= Alpha
 Occup=    0.000000
   1     -0.000000006198
   2      0.000000044720
   3      0.000000065762
   4     -0.022342887680
   5      0.000065086165
   6     -0.000000001200
   7     -0.407701512406
   8     -0.000451955140
   9     -0.000000138769
  10      0.000000011660
  11      0.196235903023
  12     -0.000067473085
  13      0.000000044590
  14     -0.000000000828
  15      0.000143560469
  16      0.000127744226
  17      0.201948096330
  18      0.000148557287
  19     -0.000094317358
  20     -0.000143505435
  21     -0.000127706705
  22      0.201948098304
  23      0.000148557505
  24      0.000094412760
  25      0.000000007052
  26     -0.000000053164
  27     -0.000000085984
  28     -0.150225522094
  29      0.000009680082
  30     -0.000000003651
  31      1.043158572536
  32      0.000176637649
  33     -0.000000119274
  34     -0.000000000434
  35     -0.155730688604
  36      0.000085020288
  37      0.000000049670
  38      0.000000000299
  39     -0.331286493094
  40     -0.294803892391
  41     -0.342883901595
  42     -0.000087493275
  43     -0.217802936060
  44      0.331286447658
  45      0.294803876141
  46     -0.342883880203
  47     -0.000087493053
  48      0.217803025345
 Ene=   0.16422413402835E+01
 Spin= Alpha
 Occup=    0.000000
   1      0.000028509223
   2     -0.000192081242
   3     -0.000185085436
   4     -0.000000001141
   5     -0.000000001602
   6      0.000147767121
   7      0.000000033394
   8      0.000000004992
   9     -0.000467486356
  10      0.000205278694
  11     -0.000000014645
  12      0.000000004732
  13      0.000053514092
  14     -0.000000001131
  15      0.000124067032
  16      0.000082084817
  17     -0.000000006183
  18     -0.000089759708
  19      0.000225692781
  20      0.000124074316
  21      0.000082083901
  22     -0.000000009356
  23      0.000089755423
  24      0.000225696820
  25      0.000028585704
  26     -0.000192619327
  27     -0.000186078247
  28      0.000000027511
  29     -0.000000000018
  30     -0.000147815138
  31     -0.000000106902
  32     -0.000000000626
  33      0.000465853854
  34      0.000205194187
  35      0.000000022136
  36     -0.000000005067
  37     -0.000052997871
  38      0.000000000287
  39      0.000123807766
  40      0.000081911716
  41     -0.000089705919
  42     -0.000000001448
  43     -0.000225149892
  44      0.000123742067
  45      0.000081859570
  46      0.000089813038
  47     -0.000000001382
  48     -0.000225205172
 Ene=   0.16422508832587E+01
 Spin= Alpha
 Occup=    0.000000
   1     -0.000007808298
   2      0.000034772688
   3      0.000354428857
   4      0.000000003522
   5      0.000000001473
   6     -0.000026954441
   7      0.000000037833
   8     -0.000000016887
   9     -0.000362259750
  10      0.000070244901
  11     -0.000000018543
  12     -0.000000000826
  13      0.000051431639
  14      0.000000000630
  15      0.000040719562
  16      0.000041262824
  17     -0.000000021662
  18     -0.000029608257
  19      0.000055224595
  20      0.000040710555
  21      0.000041251010
  22     -0.000000019419
  23      0.000029617080
  24      0.000055234620
  25      0.000007799948
  26     -0.000034714919
  27     -0.000354394381
  28      0.000000009807
  29     -0.000000000477
  30     -0.000026918443
  31     -0.000000095572
  32      0.000000007738
  33     -0.000362370787
  34     -0.000070302414
  35      0.000000014306
  36      0.000000002084
  37      0.000051440215
  38     -0.000000000140
  39     -0.000040713859
  40     -0.000041245433
  41      0.000029663450
  42     -0.000000005016
  43      0.000055299241
  44     -0.000040776369
  45     -0.000041302888
  46     -0.000029610104
  47     -0.000000004297
  48      0.000055259036
 Ene=   0.16491895168678E+01
 Spin= Alpha
 Occup=    0.000000
   1     -0.057435725462
   2      0.413117570894
   3      0.647101804816
   4      0.000000001142
   5     -0.000000035650
   6     -0.032854042362
   7      0.000000071638
   8      0.000000286987
   9     -1.157050138936
  10      0.047858357489
  11     -0.000000030776
  12      0.000000043223
  13      0.394247669768
  14      0.000000115670
  15      0.224168003213
  16      0.142008418443
  17     -0.000000189762
  18      0.011903851582
  19      0.387500039632
  20      0.224168185176
  21      0.142008593866
  22      0.000000146123
  23     -0.011903997921
  24      0.387499926514
  25      0.057435734761
  26     -0.413117635745
  27     -0.647101871222
  28      0.000000042275
  29     -0.000000003740
  30     -0.032854100634
  31     -0.000000221526
  32     -0.000000112454
  33     -1.157049963687
  34     -0.047858286508
  35      0.000000039233
  36     -0.000000061553
  37      0.394247637983
  38      0.000000113671
  39     -0.224167975924
  40     -0.142008418405
  41     -0.011903860809
  42     -0.000000116345
  43      0.387499951140
  44     -0.224168111978
  45     -0.142008543972
  46      0.011904037806
  47      0.000000224136
  48      0.387499838587
 Ene=   0.16822893788759E+01
 Spin= Alpha
 Occup=    0.000000
   1     -0.000000000007
   2     -0.000000000573
   3      0.000000015313
   4     -0.000007748198
   5     -0.000000001307
   6      0.000000003308
   7     -0.000005811446
   8      0.000000010374
   9     -0.000000024995
  10      0.000000003853
  11      0.000069408386
  12      0.000000000801
  13      0.000000003919
  14     -0.000000000860
  15      0.000000000329
  16     -0.000000000654
  17     -0.000019088953
  18     -0.000000004734
  19      0.000000010196
  20      0.000000006219
  21      0.000000005637
  22     -0.000019089432
  23     -0.000000001955
  24      0.000000005871
  25      0.000000000167
  26     -0.000000000392
  27     -0.000000025027
  28     -0.000018678138
  29     -0.000000000281
  30     -0.000000004509
  31      0.000081231945
  32     -0.000000004603
  33     -0.000000007675
  34      0.000000003365
  35     -0.000019422306
  36     -0.000000002931
  37     -0.000000005289
  38      0.000000000046
  39     -0.000017226040
  40     -0.000038778063
  41      0.000004751465
  42      0.000000002405
  43      0.000005393477
  44      0.000017228100
  45      0.000038779237
  46      0.000004747968
  47      0.000000002749
  48     -0.000005395489
 Ene=   0.18332927264807E+01
 Spin= Alpha
 Occup=    0.000000
   1     -0.000000006097
   2      0.000000044780
   3      0.000000016596
   4      0.150652517912
   5      0.000050770258
   6      0.000000001753
   7      0.178176443517
   8      0.000030739771
   9     -0.000000034569
  10     -0.000000020951
  11      0.285813542724
  12     -0.000083990116
  13      0.000000035878
  14      0.000000002710
  15      0.000018856840
  16     -0.000048684716
  17     -0.401913943835
  18      0.000034755975
  19      0.000073386502
  20     -0.000018839984
  21      0.000048686171
  22     -0.401913945526
  23      0.000034724368
  24     -0.000073345514
  25     -0.000000005230
  26      0.000000041638
  27     -0.000000049286
  28     -0.161877577581
  29     -0.000047231946
  30     -0.000000010315
  31     -0.097999499229
  32     -0.000055875052
  33     -0.000000040364
  34     -0.000000027383
  35     -0.267849422459
  36      0.000089622197
  37     -0.000000026215
  38      0.000000000084
  39     -0.060113326815
  40      0.155216315244
  41     -0.110723939194
  42      0.000126024281
  43      0.233939407539
  44      0.060113319410
  45     -0.155216333218
  46     -0.110723992516
  47      0.000126024717
  48     -0.233939420057
 Ene=   0.18333003627968E+01
 Spin= Alpha
 Occup=    0.000000
   1      0.000000000843
   2     -0.000000009810
   3      0.000000032117
   4     -0.150574905352
   5      0.000033257427
   6     -0.000000000036
   7     -0.178158905993
   8      0.000020135643
   9     -0.000000020997
  10      0.000000008918
  11     -0.285736813551
  12     -0.000055020291
  13     -0.000000007041
  14     -0.000000009732
  15      0.000012345474
  16     -0.000031889438
  17      0.401795714774
  18      0.000022748029
  19      0.000048062150
  20     -0.000012347967
  21      0.000031890561
  22      0.401795702313
  23      0.000022756733
  24     -0.000048056386
  25      0.000000000813
  26     -0.000000002738
  27     -0.000000036475
  28      0.161902972884
  29     -0.000030943508
  30     -0.000000004751
  31      0.098063715965
  32     -0.000036602553
  33     -0.000000006827
  34      0.000000005701