[Molden Format]
[Title]
generated by TRESC, imaginary part2 of MOs of job twisted_C2H4
 
[Atoms] AU
 C   1   6    0.0000000000    0.0000000000    1.3668709329
 H   2   1    0.0000000000    1.7631351343    2.4609882652
 H   3   1    0.0000000000   -1.7631351343    2.4609882652
 C   4   6    0.0000000000    0.0000000000   -1.3668709329
 H   5   1    1.7631351343    0.0000000000   -2.4609882652
 H   6   1   -1.7631351343    0.0000000000   -2.4609882652
[GTO]
  1 0
 s  5 1.0
     1238.4016938000        0.0059599745
      186.2900499200        0.0422621111
       42.2511763500        0.1866575214
       11.6765579300        0.4675815865
        3.5930506500        0.4422897287
 s  1 1.0
        0.4024514700        1.0000000000
 s  1 1.0
        0.1309018300        1.0000000000
 p  3 1.0
        9.4680970600        0.0570294585
        2.0103545100        0.3130471495
        0.5477100500        0.7605135301
 p  1 1.0
        0.1526861400        1.0000000000
 d  1 1.0
        0.8000000000        1.0000000000
 
  2 0
 s  3 1.0
       13.0107010000        0.0391282527
        1.9622572000        0.2855840539
        0.4445379600        0.7689908602
 s  1 1.0
        0.1219496200        1.0000000000
 p  1 1.0
        0.8000000000        1.0000000000
 
  3 0
 s  3 1.0
       13.0107010000        0.0391282527
        1.9622572000        0.2855840539
        0.4445379600        0.7689908602
 s  1 1.0
        0.1219496200        1.0000000000
 p  1 1.0
        0.8000000000        1.0000000000
 
  4 0
 s  5 1.0
     1238.4016938000        0.0059599745
      186.2900499200        0.0422621111
       42.2511763500        0.1866575214
       11.6765579300        0.4675815865
        3.5930506500        0.4422897287
 s  1 1.0
        0.4024514700        1.0000000000
 s  1 1.0
        0.1309018300        1.0000000000
 p  3 1.0
        9.4680970600        0.0570294585
        2.0103545100        0.3130471495
        0.5477100500        0.7605135301
 p  1 1.0
        0.1526861400        1.0000000000
 d  1 1.0
        0.8000000000        1.0000000000
 
  5 0
 s  3 1.0
       13.0107010000        0.0391282527
        1.9622572000        0.2855840539
        0.4445379600        0.7689908602
 s  1 1.0
        0.1219496200        1.0000000000
 p  1 1.0
        0.8000000000        1.0000000000
 
  6 0
 s  3 1.0
       13.0107010000        0.0391282527
        1.9622572000        0.2855840539
        0.4445379600        0.7689908602
 s  1 1.0
        0.1219496200        1.0000000000
 p  1 1.0
        0.8000000000        1.0000000000
 
[5D]
[7F]
[9G]
[MO]
 Ene=   0.69606432496224E+00
 Spin= Alpha
 Occup=    0.000000
   1     -0.000000114980
   2      0.000000796434
   3     -0.000003930241
   4      0.000000003246
   5     -0.000000112355
   6     -0.000000315842
   7      0.000000030771
   8      0.000000263512
   9      0.000001577247
  10     -0.000000059864
  11     -0.000000001802
  12      0.000000013682
  13     -0.000000025318
  14     -0.000002804971
  15      0.000000158872
  16      0.000000030580
  17     -0.000002425787
  18      0.000000012444
  19     -0.000000019800
  20      0.000000110404
  21      0.000000408990
  22      0.000002427026
  23      0.000000016759
  24     -0.000000039189
  25     -0.000000027728
  26      0.000000043320
  27      0.000001777377
  28      0.000000072462
  29     -0.000000013470
  30     -0.000000750649
  31     -0.000000177249
  32     -0.000000035465
  33      0.000002403952
  34      0.000000048047
  35      0.000000007935
  36     -0.000000003010
  37     -0.000000108499
  38     -0.000002807166
  39     -0.000000402119
  40      0.000000966539
  41     -0.000000110405
  42     -0.000002429243
  43      0.000000016914
  44     -0.000000379284
  45      0.000000724105
  46      0.000000091592
  47      0.000002429180
  48      0.000000004874
 Ene=   0.69606998538255E+00
 Spin= Alpha
 Occup=    0.000000
   1     -0.000000117964
   2      0.000000815783
   3     -0.000004000907
   4      0.000000002960
   5      0.000000111981
   6     -0.000000312146
   7      0.000000031775
   8     -0.000000267979
   9      0.000001580945
  10     -0.000000061088
  11     -0.000000001901
  12     -0.000000013640
  13     -0.000000024706
  14     -0.000002203560
  15      0.000000112591
  16      0.000000425029
  17     -0.000002035212
  18     -0.000000018094
  19     -0.000000039862
  20      0.000000153061
  21      0.000000049553
  22      0.000002036584
  23     -0.000000010783
  24     -0.000000021392
  25     -0.000000030998
  26      0.000000061117
  27      0.000001754027
  28      0.000000071950
  29      0.000000012515
  30     -0.000000765273
  31     -0.000000178133
  32      0.000000038341
  33      0.000002443050
  34      0.000000048074
  35      0.000000007608
  36      0.000000002745
  37     -0.000000111257
  38      0.000002201676
  39     -0.000000409848
  40      0.000000994363
  41     -0.000000113219
  42      0.000002035544
  43      0.000000017490
  44     -0.000000389485
  45      0.000000753536
  46      0.000000094537
  47     -0.000002034531
  48      0.000000005759
 Ene=   0.73640849572359E+00
 Spin= Alpha
 Occup=    0.000000
   1      0.000000480649
   2     -0.000003695861
   3      0.000028016405
   4      0.000000011106
   5     -0.000000004907
   6      0.000005962018
   7     -0.000000013249
   8      0.000000014046
   9     -0.000020736999
  10      0.000000728557
  11     -0.000000000201
  12     -0.000000000254
  13      0.000000650930
  14      0.000010305861
  15     -0.000002249557
  16      0.000003285354
  17      0.000005922265
  18     -0.000000582330
  19      0.000000095928
  20     -0.000002248267
  21      0.000003296991
  22     -0.000005921576
  23      0.000000583276
  24      0.000000094560
  25     -0.000000479658
  26      0.000003690689
  27     -0.000028008346
  28     -0.000000004979
  29      0.000000010230
  30      0.000005963585
  31      0.000000012862
  32     -0.000000011946
  33     -0.000020737099
  34     -0.000000728850
  35      0.000000000298
  36      0.000000000459
  37      0.000000651395
  38      0.000010305711
  39      0.000002253621
  40     -0.000003302402
  41      0.000000584214
  42      0.000005923057
  43      0.000000094209
  44      0.000002252927
  45     -0.000003290797
  46     -0.000000582828
  47     -0.000005924325
  48      0.000000095056
 Ene=   0.75120497283324E+00
 Spin= Alpha
 Occup=    0.000000
   1      0.000000003257
   2     -0.000000009519
   3      0.000000005030
   4      0.000000000696
   5     -0.001908276163
   6      0.000000007458
   7     -0.000000007504
   8      0.004444700690
   9     -0.000000019927
  10      0.000000000790
  11     -0.000000001675
  12      0.000301558387
  13      0.000000001252
  14      0.000000000992
  15      0.000321134069
  16     -0.003185164171
  17     -0.000000000793
  18      0.000310375070
  19      0.000186464910
  20     -0.000321104105
  21      0.003185158235
  22     -0.000000000686
  23      0.000310373123
  24     -0.000186464034
  25     -0.000000002588
  26      0.000000011006
  27     -0.000000034150
  28     -0.000000000344
  29     -0.000579832536
  30      0.000000000038
  31      0.000000016664
  32     -0.000251586817
  33      0.000000002744
  34     -0.000000002242
  35      0.000000002456
  36     -0.000079374057
  37     -0.000000001948
  38      0.000000001401
  39     -0.000000014723
  40      0.000000010882
  41     -0.000000001239
  42     -0.000036776244
  43      0.000000000888
  44      0.000000002708
  45      0.000000015298
  46      0.000000000996
  47     -0.000036787093
  48      0.000000000976
 Ene=   0.11751869260757E+01
 Spin= Alpha
 Occup=    0.000000
   1      0.000000005207
   2     -0.000000031495
   3      0.000000106207
   4      0.000000000077
   5     -0.000000002253
   6      0.000000006679
   7     -0.000000002548
   8     -0.000000001360
   9     -0.000000011355
  10      0.000000000412
  11      0.000000000738
  12      0.000000001362
  13     -0.000000003653
  14      0.340210809385
  15      0.000000000105
  16     -0.000000027002
  17      0.350175999715
  18      0.000000008716
  19      0.000000005796
  20     -0.000000006941
  21     -0.000000019238
  22     -0.350175995154
  23     -0.000000005788
  24     -0.000000000226
  25     -0.000000000581
  26      0.000000006322
  27     -0.000000041758
  28     -0.000000002625
  29      0.000000002420
  30      0.000000008292
  31      0.000000004766
  32      0.000000006376
  33     -0.000000027291
  34     -0.000000006618
  35     -0.000000000076
  36      0.000000002850
  37     -0.000000003908
  38      0.340210834403
  39      0.000000004773
  40     -0.000000008286
  41      0.000000002136
  42      0.350176032524
  43     -0.000000000224
  44      0.000000002936
  45     -0.000000001806
  46     -0.000000001895
  47     -0.350176049770
  48     -0.000000002627
 Ene=   0.12104571631974E+01
 Spin= Alpha
 Occup=    0.000000
   1      0.000000000206
   2     -0.000000000732
   3     -0.000000000774
   4     -0.000000001485
   5      0.000008571575
   6     -0.000000000346
   7     -0.000000001763
   8      0.000002084100
   9      0.000000002997
  10     -0.000000000182
  11      0.000000004408
  12      0.000005596428
  13      0.000000000004
  14     -0.000000000979
  15     -0.000010772475
  16      0.000001585888
  17     -0.000000000547
  18     -0.000012449834
  19      0.000022919586
  20      0.000010772965
  21     -0.000001588159
  22      0.000000002365
  23     -0.000012450756
  24     -0.000022919564
  25      0.000000000029
  26     -0.000000000182
  27      0.000000004476
  28     -0.000000001635
  29     -0.000003413116
  30      0.000000001110
  31      0.000000007262
  32      0.000013351897
  33      0.000000001170
  34      0.000000000345
  35     -0.000000000834
  36      0.000029415834
  37      0.000000000287
  38      0.000000001134
  39     -0.000000000332
  40     -0.000000005474
  41      0.000000004154
  42     -0.000010003381
  43      0.000000001628
  44      0.000000001605
  45      0.000000003310
  46      0.000000003859
  47     -0.000010005795
  48     -0.000000002982
 Ene=   0.12196905572498E+01
 Spin= Alpha
 Occup=    0.000000
   1     -0.000000002666
   2      0.000000014541
   3     -0.000000033689
   4     -0.000000000403
   5      0.000000000004
   6      0.000000001591
   7     -0.000000003087
   8      0.000000011447
   9     -0.000000004464
  10      0.000000001861
  11      0.000000000095
  12     -0.000000000632
  13     -0.000000002175
  14      0.286867814352
  15     -0.000000008606
  16      0.000000013534
  17      0.386920571354
  18     -0.000000005131
  19     -0.000000005405
  20      0.000000001083
  21      0.000000014805
  22     -0.386920566836
  23      0.000000004211
  24      0.000000000754
  25     -0.000000000526
  26      0.000000002995
  27      0.000000002392
  28     -0.000000002921
  29     -0.000000001357
  30     -0.000000000622
  31      0.000000008133
  32     -0.000000011921
  33      0.000000000210
  34      0.000000002355
  35     -0.000000000065
  36     -0.000000003837
  37      0.000000001198
  38     -0.286867773820
  39     -0.000000001591
  40     -0.000000003932
  41      0.000000001035
  42     -0.386920523889
  43     -0.000000000208
  44     -0.000000002009
  45      0.000000005762
  46     -0.000000000261
  47      0.386920545925
  48     -0.000000001039
 Ene=   0.12510685010848E+01
 Spin= Alpha
 Occup=    0.000000
   1     -0.000000000077
   2      0.000000000037
   3      0.000000001793
   4      0.000000000372
   5     -0.000007404411
   6      0.000000000217
   7     -0.000000004345
   8     -0.000067578109
   9     -0.000000002154
  10      0.000000000455
  11      0.000000003209
  12     -0.000007620890
  13     -0.000000000174
  14      0.000000000147
  15      0.000032966489
  16      0.000016982609
  17      0.000000000601
  18      0.000011260044
  19     -0.000014701813
  20     -0.000032967112
  21     -0.000016981088
  22      0.000000000298
  23      0.000011261032
  24      0.000014701030
  25     -0.000000000025
  26      0.000000000226
  27     -0.000000003509
  28      0.000000003537
  29     -0.000000129723
  30     -0.000000000336
  31      0.000000008389
  32      0.000021829337
  33     -0.000000001804
  34     -0.000000000543
  35     -0.000000000318
  36      0.000012748543
  37     -0.000000000060
  38      0.000000000227
  39     -0.000000007114
  40      0.000000000951
  41     -0.000000003377
  42      0.000000352984
  43     -0.000000001019
  44      0.000000006270
  45      0.000000000070
  46     -0.000000003407
  47      0.000000352908
  48      0.000000002107
 Ene=   0.14911258076255E+01
 Spin= Alpha
 Occup=    0.000000
   1     -0.000000000065
   2     -0.000000002506
   3     -0.000000032213
   4     -0.000003205305
   5     -0.003864293431
   6     -0.000000000459
   7      0.000108124439
   8      0.228547396600
   9      0.000000017256
  10      0.000000002840
  11     -0.000111289356
  12      0.050857481440
  13     -0.000000009239
  14      0.000000000949
  15     -0.093946513240
  16     -0.025143063510
  17     -0.000097319778
  18      0.160803621604
  19     -0.278346367737
  20      0.093946504641
  21      0.025143073681
  22     -0.000097315562
  23      0.160803631408
  24      0.278346353609
  25     -0.000000000194
  26      0.000000001292
  27      0.000000015656
  28      0.000001309971
  29      0.009437291599
  30     -0.000000001112
  31     -0.000077625030
  32     -0.318341601892
  33      0.000000025255
  34      0.000000005719
  35      0.000017273662
  36     -0.327659811367
  37     -0.000000003937
  38      0.000000011015
  39      0.000031914134
  40      0.000008543262
  41     -0.000054619919
  42      0.286524318484
  43     -0.000094544666
  44     -0.000031906517
  45     -0.000008534138
  46     -0.000054615057
  47      0.286524304889
  48      0.000094534442
 Ene=   0.14911471133804E+01
 Spin= Alpha
 Occup=    0.000000
   1     -0.000000000905
   2      0.000000005183
   3     -0.000000039533
   4      0.000004454317
   5     -0.003883561625
   6      0.000000000171
   7     -0.000150249627
   8      0.228555476547
   9      0.000000008056
  10      0.000000002294
  11      0.000154652891
  12      0.050839652873
  13      0.000000001006
  14      0.000000000532
  15     -0.093928093429
  16     -0.025150136480
  17      0.000135235562
  18      0.160809978085
  19     -0.278369153974
  20      0.093928096032
  21      0.025150149764
  22      0.000135238628
  23      0.160809984089
  24      0.278369149184
  25      0.000000000185
  26     -0.000000002308
  27      0.000000018200
  28     -0.000001832822
  29      0.009436801732
  30     -0.000000002064
  31      0.000107859537
  32     -0.318365000520
  33      0.000000019505
  34      0.000000005247
  35     -0.000023991773
  36     -0.327692928204
  37     -0.000000001071
  38      0.000000004561
  39     -0.000044324848
  40     -0.000011864691
  41      0.000075892671
  42      0.286553153984
  43      0.000131374418
  44      0.000044327829
  45      0.000011870092
  46      0.000075896603
  47      0.286553148583
  48     -0.000131379888
 Ene=   0.15137916576012E+01
 Spin= Alpha
 Occup=    0.000000
   1      0.000000001043
   2     -0.000000005883
   3     -0.000000013165
   4      0.000000001276
   5      0.000000000401
   6      0.000000003680
   7     -0.000000012540
   8      0.000000019681
   9      0.000000001203
  10      0.000000002020
  11      0.000000012341
  12      0.000000008469
  13     -0.000000000444
  14     -0.000015963068
  15     -0.000000008659
  16      0.000000002115
  17     -0.000017473340
  18      0.000000030286
  19     -0.000000048478
  20      0.000000011995
  21     -0.000000001331
  22      0.000017500468
  23      0.000000032608
  24      0.000000052922
  25     -0.000000000208
  26      0.000000000341
  27      0.000000006334
  28      0.000000000047
  29      0.000000007231
  30     -0.000000002018
  31      0.000000000203
  32     -0.000000044417
  33      0.000000018963
  34      0.000000003998
  35     -0.000000001325
  36     -0.000000055299
  37     -0.000000001987
  38     -0.000015976495
  39      0.000000001764
  40      0.000000005056
  41      0.000000007994
  42     -0.000017454848
  43      0.000000008684
  44      0.000000003788
  45     -0.000000000648
  46      0.000000010633
  47      0.000017529764
  48     -0.000000023404
 Ene=   0.15138121180160E+01
 Spin= Alpha
 Occup=    0.000000
   1     -0.000000000060
   2      0.000000000238
   3      0.000000011252
   4      0.000000000736
   5     -0.000000000654
   6     -0.000000000430
   7     -0.000000015021
   8     -0.000000020248
   9     -0.000000004701
  10      0.000000000136
  11      0.000000014010
  12     -0.000000008310
  13     -0.000000000210
  14     -0.000021142086
  15      0.000000009895
  16     -0.000000000886
  17      0.000002136009
  18     -0.000000031846
  19      0.000000049090
  20     -0.000000010547
  21      0.000000001467
  22     -0.000002109926
  23     -0.000000031142
  24     -0.000000051379
  25      0.000000000153
  26     -0.000000001110
  27     -0.000000004600
  28      0.000000000020
  29     -0.000000006752
  30      0.000000002459
  31      0.000000011803
  32      0.000000044833
  33     -0.000000013665
  34     -0.000000000297
  35     -0.000000002197
  36      0.000000054607
  37      0.000000003030
  38      0.000021153963
  39     -0.000000006728
  40     -0.000000003661
  41      0.000000006193
  42     -0.000002160561
  43      0.000000015579
  44      0.000000003265
  45     -0.000000001188
  46      0.000000004649
  47      0.000002083142
  48     -0.000000007031
 Ene=   0.16131308339959E+01
 Spin= Alpha
 Occup=    0.000000
   1      0.000000717818
   2     -0.000004940800
   3     -0.000004881532
   4     -0.000000001469
   5      0.000000003436
   6      0.000004390768
   7     -0.000000003500
   8     -0.000000027116
   9     -0.000013247092
  10      0.000005712531
  11      0.000000003075
  12     -0.000000001832
  13      0.000001110897
  14      0.000000212993
  15      0.000003166618
  16      0.000002162185
  17      0.000014958367
  18     -0.000002271776
  19      0.000006877386
  20      0.000003151058
  21      0.000002146473
  22     -0.000014954615
  23      0.000002291312
  24      0.000006893148
  25      0.000000721369
  26     -0.000004967552
  27     -0.000004912411
  28     -0.000000000909
  29     -0.000000000239
  30     -0.000004392845
  31      0.000000011288
  32      0.000000012445
  33      0.000013178242
  34      0.000005710282
  35     -0.000000002264
  36      0.000000001446
  37     -0.000001084294
  38     -0.000000213060
  39      0.000003138824
  40      0.000002142080
  41     -0.000002285348
  42     -0.000014964079
  43     -0.000006863143
  44      0.000003147014
  45      0.000002148862
  46      0.000002280185
  47      0.000014950117
  48     -0.000006859888
 Ene=   0.16227957932476E+01
 Spin= Alpha
 Occup=    0.000000
   1      0.000000001497
   2     -0.000000013305
   3     -0.000000021114
   4     -0.000000000082
   5     -0.000412711204
   6     -0.000000000225
   7     -0.000000005307
   8      0.002655692271
   9      0.000000046636
  10     -0.000000002622
  11      0.000000002371
  12      0.000369560704
  13     -0.000000017658
  14      0.000000001285
  15     -0.000837649997
  16     -0.000726989661
  17     -0.000000002283
  18     -0.000974666326
  19      0.000583914113
  20      0.000837627199
  21      0.000726978419
  22      0.000000001116
  23     -0.000974666791
  24     -0.000583944788
  25     -0.000000001914
  26      0.000000014120
  27      0.000000026571
  28     -0.000000004254
  29     -0.000095980352
  30      0.000000001648
  31      0.000000022218
  32     -0.001001658204
  33      0.000000039847
  34      0.000000002264
  35     -0.000000004017
  36     -0.000490821062
  37     -0.000000013900
  38      0.000000012293
  39      0.000000000110
  40     -0.000000001098
  41     -0.000000011489
  42      0.000492663816
  43     -0.000000020388
  44      0.000000015096
  45      0.000000010094
  46     -0.000000011841
  47      0.000492660050
  48     -0.000000004235
 Ene=   0.16290907374573E+01
 Spin= Alpha
 Occup=    0.000000
   1      0.000000005105
   2     -0.000000042809
   3     -0.000000088435
   4     -0.000000381808
   5     -0.150231125025
   6     -0.000000023021
   7     -0.000006952439
   8      1.043180859025
   9      0.000000256384
  10     -0.000000036370
  11      0.000003345565
  12      0.155705677565
  13     -0.000000079716
  14      0.000000001193
  15     -0.331269449494
  16     -0.294836800782
  17      0.000003440556
  18     -0.342869592791
  19      0.217825112701
  20      0.331269337257
  21      0.294836749752
  22      0.000003444837
  23     -0.342869593381
  24     -0.217825324814
  25     -0.000000012975
  26      0.000000092791
  27      0.000000134396
  28     -0.000002564502
  29     -0.022402256114
  30      0.000000029262
  31      0.000017795129
  32     -0.407699685118
  33      0.000000110393
  34     -0.000000018862
  35     -0.000002657426
  36     -0.196188126484
  37     -0.000000055224
  38      0.000000012054
  39     -0.000005633134
  40     -0.000005019290
  41     -0.000005836636
  42      0.202003344323
  43     -0.000003742150
  44      0.000005669197
  45      0.000005037838
  46     -0.000005868132
  47      0.202003338104
  48      0.000003693170
 Ene=   0.16290974958361E+01
 Spin= Alpha
 Occup=    0.000000
   1      0.000000000878
   2     -0.000000001608
   3      0.000000036183
   4      0.000009613435
   5      0.150177131312
   6      0.000000028045
   7      0.000175415731
   8     -1.042822537822
   9     -0.000000159276
  10      0.000000037079
  11     -0.000084431590
  12     -0.155680535982
  13      0.000000038206
  14      0.000000000023
  15      0.331179792439
  16      0.294708926239
  17     -0.000086888991
  18      0.342773432420
  19     -0.217732731347
  20     -0.331179724120
  21     -0.294708898210
  22     -0.000086888507
  23      0.342773441778
  24      0.217732878476
  25      0.000000008414
  26     -0.000000059527
  27     -0.000000082244
  28      0.000064635249
  29      0.022335669121
  30     -0.000000028390
  31     -0.000448827417
  32      0.407570181725
  33     -0.000000000550
  34      0.000000027680
  35      0.000067004412
  36      0.196172715614
  37      0.000000019857
  38      0.000000002157
  39      0.000142542789
  40      0.000126847116
  41      0.000147511690
  42     -0.201883023830
  43      0.000093699251
  44     -0.000142534623
  45     -0.000126837173
  46      0.000147545580
  47     -0.201883024036
  48     -0.000093726802
 Ene=   0.16422413402835E+01
 Spin= Alpha
 Occup=    0.000000
   1     -0.000000001685
   2      0.000000011826
   3      0.000000021516
   4     -0.000000000315
   5     -0.000000012017
   6      0.000000001186
   7     -0.000000007999
   8      0.000000082115
   9     -0.000000052753
  10      0.000000006751
  11      0.000000002829
  12      0.000000013918
  13      0.000000014635
  14     -0.000003453731
  15     -0.000000016815
  16     -0.000000014536
  17      0.000020146399
  18     -0.000000027840
  19      0.000000031633
  20      0.000000037938
  21      0.000000028300
  22     -0.000020134710
  23     -0.000000024762
  24      0.000000006160
  25      0.000000002984
  26     -0.000000020952
  27     -0.000000027215
  28     -0.000000000162
  29      0.000000000307
  30     -0.000000004365
  31      0.000000015891
  32     -0.000000034556
  33     -0.000000034957
  34      0.000000002560
  35     -0.000000001741
  36     -0.000000022089
  37      0.000000015003
  38      0.000003453216
  39     -0.000000010825
  40     -0.000000010296
  41     -0.000000002383
  42     -0.000020123332
  43      0.000000007925
  44     -0.000000001821
  45      0.000000002718
  46      0.000000003113
  47      0.000020155934
  48      0.000000013145
 Ene=   0.16422508832587E+01
 Spin= Alpha
 Occup=    0.000000
   1     -0.000000002760
   2      0.000000019326
   3      0.000000032860
   4      0.000000000124
   5      0.000000012465
   6     -0.000000001499
   7     -0.000000006895
   8     -0.000000083733
   9     -0.000000060336
  10      0.000000004366
  11      0.000000002911
  12     -0.000000013683
  13      0.000000018935
  14      0.000008535435
  15      0.000000038694
  16      0.000000029663
  17      0.000003002423
  18      0.000000026118
  19      0.000000007327
  20     -0.000000016001
  21     -0.000000014525
  22     -0.000002996906
  23      0.000000026549
  24      0.000000032995
  25      0.000000003298
  26     -0.000000023179
  27     -0.000000033550
  28     -0.000000001861
  29      0.000000000022
  30     -0.000000002758
  31      0.000000019268
  32      0.000000035717
  33     -0.000000056101
  34     -0.000000001079
  35     -0.000000003008
  36      0.000000021188
  37      0.000000020286
  38      0.000008537736
  39     -0.000000016180
  40     -0.000000013806
  41     -0.000000004844
  42      0.000002988893
  43      0.000000013893
  44     -0.000000004849
  45      0.000000000513
  46     -0.000000001688
  47     -0.000003024547
  48      0.000000023715
 Ene=   0.16491895168678E+01
 Spin= Alpha
 Occup=    0.000000
   1     -0.000187927797
   2      0.001351705647
   3      0.002117310943
   4     -0.000000001432
   5     -0.000000001739
   6     -0.000107490630
   7      0.000000038254
   8      0.000000016660
   9     -0.003785885169
  10      0.000156604676
  11     -0.000000013824
  12      0.000000005000
  13      0.001289972542
  14     -0.000036150690
  15      0.000733473116
  16      0.000464650905
  17      0.000051872090
  18      0.000038938462
  19      0.001267910566
  20      0.000733485935
  21      0.000464659585
  22     -0.000051905459
  23     -0.000038948302
  24      0.001267906210
  25      0.000187931129
  26     -0.001351729800
  27     -0.002117325165
  28      0.000000015456
  29      0.000000000541
  30     -0.000107506229
  31     -0.000000098445
  32     -0.000000006214
  33     -0.003785837993
  34     -0.000156579292
  35      0.000000013418
  36     -0.000000008617
  37      0.001289974262
  38     -0.000036151947
  39     -0.000733440285
  40     -0.000464617814
  41     -0.000038920921
  42      0.000051890416
  43      0.001267911157
  44     -0.000733499934
  45     -0.000464675480
  46      0.000038988881
  47     -0.000051887891
  48      0.001267860720
 Ene=   0.16822893788759E+01
 Spin= Alpha
 Occup=    0.000000
   1      0.000000001005
   2     -0.000000008535
   3      0.000000010620
   4      0.000000000837
   5      0.000018705410
   6      0.000000003980
   7      0.000000002056
   8     -0.000081412840
   9     -0.000000026420
  10      0.000000007743
  11      0.000000000672
  12     -0.000019462883
  13     -0.000000000682
  14      0.000000002377
  15      0.000017293473
  16      0.000038831905
  17     -0.000000006938
  18     -0.000004702043
  19      0.000005373102
  20     -0.000017287901
  21     -0.000038820873
  22     -0.000000001226
  23     -0.000004688956
  24     -0.000005362434
  25      0.000000001111
  26     -0.000000007270
  27     -0.000000022618
  28     -0.000000001892
  29      0.000007741827
  30     -0.000000003532
  31      0.000000001365
  32      0.000005878543
  33     -0.000000001275
  34      0.000000004132
  35     -0.000000001653
  36      0.000069462287
  37      0.000000001799
  38      0.000000013809
  39      0.000000001705
  40      0.000000002318
  41     -0.000000006255
  42      0.000019070516
  43     -0.000000003255
  44      0.000000002502
  45      0.000000002585
  46      0.000000000559
  47      0.000019071402
  48     -0.000000001128
 Ene=   0.18332927264807E+01
 Spin= Alpha
 Occup=    0.000000
   1      0.000000000907
   2     -0.000000007475
   3     -0.000000013517
   4     -0.000001763841
   5      0.161851084338
   6     -0.000000003468
   7     -0.000002073893
   8      0.097983402685
   9      0.000000006818
  10      0.000000004320
  11     -0.000003339198
  12     -0.267805614762
  13     -0.000000008175
  14      0.000000004476
  15      0.060103510751
  16     -0.155190895960
  17      0.000004689691
  18      0.110705831184
  19      0.233901118040
  20     -0.060103513461
  21      0.155190904839
  22      0.000004696941
  23      0.110705845649
  24     -0.233901131918
  25      0.000000001610
  26     -0.000000013046
  27      0.000000016831
  28      0.000001876532
  29     -0.150627884137
  30      0.000000002893
  31      0.000001123683
  32     -0.178147271677
  33      0.000000003447
  34      0.000000008596
  35      0.000003127758
  36      0.285766811975
  37      0.000000010460
  38      0.000000011484
  39      0.000000704780
  40     -0.000001790473
  41      0.000001262887
  42      0.401848195514
  43     -0.000002711109
  44     -0.000000708819
  45      0.000001793071
  46      0.000001275782
  47      0.401848198736
  48      0.000002723559
 Ene=   0.18333003627968E+01
 Spin= Alpha
 Occup=    0.000000
   1      0.000000000136
   2      0.000000000199
   3     -0.000000018298
   4     -0.000014546420
   5      0.161929435312
   6     -0.000000003107
   7     -0.000017198056
   8      0.098079732144
   9      0.000000011376
  10     -0.000000001557
  11     -0.000027596483
  12     -0.267823853606
  13     -0.000000002461
  14      0.000000001062
  15      0.060092138798
  16     -0.155307039243
  17      0.000038801654
  18      0.110842736495
  19      0.233988295742
  20     -0.060092138982
  21      0.155307043166
  22      0.000038803880
  23      0.110842742553
  24     -0.233988305198
  25      0.000000000100
  26     -0.000000001450
  27      0.000000014486
  28      0.000015623571
  29     -0.150599536626
  30      0.000000001537
  31      0.000009449376
  32     -0.178188039619
  33      0.000000006592
  34      0.000000002400