[Molden Format]
[Title]
generated by TRESC, imaginary part1 of MOs of job twisted_C2H4
 
[Atoms] AU
 C   1   6    0.0000000000    0.0000000000    1.3668709329
 H   2   1    0.0000000000    1.7631351343    2.4609882652
 H   3   1    0.0000000000   -1.7631351343    2.4609882652
 C   4   6    0.0000000000    0.0000000000   -1.3668709329
 H   5   1    1.7631351343    0.0000000000   -2.4609882652
 H   6   1   -1.7631351343    0.0000000000   -2.4609882652
[GTO]
  1 0
 s  5 1.0
     1238.4016938000        0.0059599745
      186.2900499200        0.0422621111
       42.2511763500        0.1866575214
       11.6765579300        0.4675815865
        3.5930506500        0.4422897287
 s  1 1.0
        0.4024514700        1.0000000000
 s  1 1.0
        0.1309018300        1.0000000000
 p  3 1.0
        9.4680970600        0.0570294585
        2.0103545100        0.3130471495
        0.5477100500        0.7605135301
 p  1 1.0
        0.1526861400        1.0000000000
 d  1 1.0
        0.8000000000        1.0000000000
 
  2 0
 s  3 1.0
       13.0107010000        0.0391282527
        1.9622572000        0.2855840539
        0.4445379600        0.7689908602
 s  1 1.0
        0.1219496200        1.0000000000
 p  1 1.0
        0.8000000000        1.0000000000
 
  3 0
 s  3 1.0
       13.0107010000        0.0391282527
        1.9622572000        0.2855840539
        0.4445379600        0.7689908602
 s  1 1.0
        0.1219496200        1.0000000000
 p  1 1.0
        0.8000000000        1.0000000000
 
  4 0
 s  5 1.0
     1238.4016938000        0.0059599745
      186.2900499200        0.0422621111
       42.2511763500        0.1866575214
       11.6765579300        0.4675815865
        3.5930506500        0.4422897287
 s  1 1.0
        0.4024514700        1.0000000000
 s  1 1.0
        0.1309018300        1.0000000000
 p  3 1.0
        9.4680970600        0.0570294585
        2.0103545100        0.3130471495
        0.5477100500        0.7605135301
 p  1 1.0
        0.1526861400        1.0000000000
 d  1 1.0
        0.8000000000        1.0000000000
 
  5 0
 s  3 1.0
       13.0107010000        0.0391282527
        1.9622572000        0.2855840539
        0.4445379600        0.7689908602
 s  1 1.0
        0.1219496200        1.0000000000
 p  1 1.0
        0.8000000000        1.0000000000
 
  6 0
 s  3 1.0
       13.0107010000        0.0391282527
        1.9622572000        0.2855840539
        0.4445379600        0.7689908602
 s  1 1.0
        0.1219496200        1.0000000000
 p  1 1.0
        0.8000000000        1.0000000000
 
[5D]
[7F]
[9G]
[MO]
 Ene=  -0.10216032526435E+02
 Spin= Alpha
 Occup=    1.000000
   1      0.000086209337
   2      0.000004335727
   3     -0.000002518325
   4      0.000000000619
   5     -0.000000000028
   6      0.000000355703
   7     -0.000000000265
   8      0.000000000011
   9     -0.000000152611
  10     -0.000000120010
  11      0.000000000002
  12     -0.000000000008
  13     -0.000000195628
  14      0.000000407276
  15     -0.000000415748
  16      0.000000769152
  17      0.000000100322
  18      0.000000258577
  19      0.000000120700
  20     -0.000000415765
  21      0.000000769163
  22     -0.000000100385
  23     -0.000000258593
  24      0.000000120710
  25      0.000085936569
  26      0.000004320176
  27     -0.000002505280
  28      0.000000000019
  29     -0.000000000013
  30     -0.000000356145
  31      0.000000000034
  32      0.000000000003
  33      0.000000154194
  34     -0.000000120886
  35     -0.000000000054
  36     -0.000000000010
  37      0.000000194945
  38     -0.000000406597
  39     -0.000000414465
  40      0.000000767214
  41      0.000000257618
  42     -0.000000100177
  43     -0.000000120104
  44     -0.000000414386
  45      0.000000767134
  46     -0.000000257606
  47      0.000000100170
  48     -0.000000120116
 Ene=  -0.10216012317587E+02
 Spin= Alpha
 Occup=    1.000000
   1     -0.000139529298
   2     -0.000007959203
   3      0.000006707373
   4      0.000000000629
   5      0.000000000025
   6      0.000000227277
   7     -0.000000000273
   8     -0.000000000016
   9     -0.000000822486
  10     -0.000000449952
  11      0.000000000002
  12      0.000000000008
  13      0.000000339099
  14      0.000000393561
  15      0.000000673216
  16     -0.000001013869
  17      0.000000079687
  18     -0.000000502654
  19     -0.000000302562
  20      0.000000673228
  21     -0.000001013878
  22     -0.000000079754
  23      0.000000502668
  24     -0.000000302571
  25      0.000139910720
  26      0.000007978387
  27     -0.000006718497
  28     -0.000000000027
  29     -0.000000000019
  30      0.000000225696
  31      0.000000000057
  32      0.000000000013
  33     -0.000000821809
  34      0.000000449419
  35     -0.000000000042
  36      0.000000000012
  37      0.000000339991
  38      0.000000394498
  39     -0.000000675090
  40      0.000001017304
  41      0.000000503807
  42      0.000000079910
  43     -0.000000303090
  44     -0.000000675034
  45      0.000001017241
  46     -0.000000503820
  47     -0.000000079893
  48     -0.000000303118
 Ene=  -0.10202527750765E+02
 Spin= Alpha
 Occup=    0.000000
   1      0.000000000722
   2      0.000000000195
   3     -0.000000000046
   4     -0.000000000001
   5      0.000000137973
   6      0.000000000812
   7     -0.000000000004
   8     -0.000000013489
   9     -0.000000000354
  10     -0.000000000085
  11     -0.000000000006
  12      0.000000141484
  13     -0.000000000077
  14      0.000000000003
  15     -0.000000063801
  16      0.000000002330
  17      0.000000000000
  18      0.000000019572
  19      0.000000091747
  20      0.000000063479
  21     -0.000000002122
  22      0.000000000000
  23      0.000000019270
  24     -0.000000091573
  25     -0.000000000812
  26      0.000000000061
  27     -0.000000000169
  28      0.000000000001
  29     -0.000000056083
  30      0.000000000150
  31      0.000000000005
  32      0.000000037497
  33     -0.000000000018
  34      0.000000000145
  35     -0.000000000007
  36      0.000000259044
  37     -0.000000000001
  38     -0.000000000011
  39     -0.000000000003
  40      0.000000000008
  41      0.000000000000
  42      0.000000043105
  43      0.000000000002
  44      0.000000000031
  45     -0.000000000006
  46      0.000000000005
  47      0.000000043096
  48     -0.000000000020
 Ene=  -0.10202480171392E+02
 Spin= Alpha
 Occup=    0.000000
   1     -0.000000000840
   2      0.000000000115
   3      0.000000000020
   4     -0.000000000003
   5     -0.000000067025
   6      0.000000000815
   7      0.000000000002
   8      0.000000005759
   9     -0.000000000323
  10     -0.000000000080
  11     -0.000000000011
  12     -0.000000101973
  13     -0.000000000084
  14      0.000000000002
  15      0.000000046069
  16     -0.000000014303
  17      0.000000000001
  18     -0.000000089486
  19      0.000000065038
  20     -0.000000046385
  21      0.000000014444
  22      0.000000000002
  23     -0.000000089789
  24     -0.000000064874
  25     -0.000000000817
  26      0.000000000074
  27     -0.000000000176
  28     -0.000000000000
  29     -0.000000007847
  30      0.000000000119
  31     -0.000000000005
  32      0.000000027525
  33      0.000000000012
  34      0.000000000148
  35     -0.000000000003
  36     -0.000000099158
  37      0.000000000003
  38      0.000000000002
  39      0.000000000017
  40      0.000000000014
  41      0.000000000005
  42     -0.000000038071
  43     -0.000000000009
  44      0.000000000021
  45      0.000000000000
  46     -0.000000000002
  47     -0.000000038105
  48     -0.000000000023
 Ene=  -0.75583270446665E+00
 Spin= Alpha
 Occup=    1.000000
   1     -0.000001707692
   2      0.000003390496
   3      0.000001107266
   4     -0.000000001900
   5     -0.000000000678
   6     -0.000000774601
   7      0.000000000364
   8      0.000000000232
   9     -0.000000159061
  10      0.000000068569
  11      0.000000000000
  12      0.000000000099
  13      0.000000028121
  14      0.000000464979
  15      0.000000873340
  16      0.000000124792
  17      0.000000737833
  18     -0.000000092912
  19     -0.000000064904
  20      0.000000873249
  21      0.000000124947
  22     -0.000000737903
  23      0.000000092896
  24     -0.000000064813
  25     -0.000001707693
  26      0.000003390540
  27      0.000001106953
  28      0.000000000602
  29      0.000000001058
  30      0.000000774615
  31     -0.000000000311
  32     -0.000000000338
  33      0.000000159080
  34      0.000000068585
  35     -0.000000000093
  36     -0.000000000029
  37     -0.000000028141
  38     -0.000000464963
  39      0.000000873443
  40      0.000000125011
  41     -0.000000092798
  42     -0.000000737938
  43      0.000000064809
  44      0.000000873515
  45      0.000000124854
  46      0.000000092881
  47      0.000000737915
  48      0.000000064968
 Ene=  -0.70978358328277E+00
 Spin= Alpha
 Occup=    0.000000
   1     -0.000000000034
   2      0.000000000429
   3      0.000000000093
   4     -0.000000000039
   5      0.000043143802
   6      0.000000001749
   7     -0.000000000023
   8     -0.000010057947
   9     -0.000000001749
  10     -0.000000000029
  11      0.000000000021
  12      0.000002966868
  13      0.000000000404
  14     -0.000000000076
  15      0.000004894335
  16      0.000006735359
  17     -0.000000000018
  18      0.000004014747
  19      0.000001747553
  20     -0.000004894822
  21     -0.000006733722
  22     -0.000000000024
  23      0.000004014743
  24     -0.000001747282
  25      0.000000000231
  26     -0.000000000589
  27     -0.000000000824
  28     -0.000000000173
  29     -0.000036921920
  30     -0.000000000495
  31     -0.000000000149
  32      0.000005493132
  33     -0.000000000639
  34      0.000000000085
  35     -0.000000000057
  36     -0.000000955934
  37      0.000000000074
  38     -0.000000000025
  39     -0.000000000765
  40     -0.000000000152
  41      0.000000000071
  42     -0.000000517368
  43     -0.000000000021
  44     -0.000000000203
  45     -0.000000000305
  46     -0.000000000084
  47     -0.000000517715
  48      0.000000000032
 Ene=  -0.60056143483801E+00
 Spin= Alpha
 Occup=    1.000000
   1     -0.000002007892
   2      0.000004132782
   3      0.000002128111
   4      0.000000000834
   5      0.000000000033
   6      0.000001862155
   7      0.000000000135
   8     -0.000000000225
   9      0.000000477658
  10     -0.000000124757
  11     -0.000000000002
  12      0.000000000002
  13     -0.000000039621
  14      0.000000039139
  15      0.000002115239
  16      0.000000469466
  17      0.000001053602
  18     -0.000000156954
  19     -0.000000052217
  20      0.000002115626
  21      0.000000469606
  22     -0.000001053738
  23      0.000000156993
  24     -0.000000052340
  25      0.000002007946
  26     -0.000004132913
  27     -0.000002128225
  28      0.000000000850
  29     -0.000000005052
  30      0.000001862110
  31      0.000000000196
  32      0.000000000186
  33      0.000000477699
  34      0.000000124749
  35     -0.000000000068
  36      0.000000000049
  37     -0.000000039165
  38      0.000000039280
  39     -0.000002115241
  40     -0.000000469434
  41      0.000000156994
  42      0.000001053678
  43     -0.000000052303
  44     -0.000002115464
  45     -0.000000469552
  46     -0.000000157011
  47     -0.000001053525
  48     -0.000000052180
 Ene=  -0.56185025444235E+00
 Spin= Alpha
 Occup=    0.000000
   1     -0.000000000231
   2      0.000000000118
   3     -0.000000001894
   4     -0.000000000035
   5     -0.000137562475
   6     -0.000000000883
   7     -0.000000000170
   8     -0.000010345630
   9      0.000000000179
  10     -0.000000000023
  11      0.000000000143
  12     -0.000005955101
  13     -0.000000000500
  14      0.000000000011
  15     -0.000040287371
  16     -0.000021844020
  17      0.000000000018
  18     -0.000005308195
  19     -0.000002775418
  20      0.000040288914
  21      0.000021845329
  22     -0.000000000023
  23     -0.000005308153
  24      0.000002775444
  25     -0.000000000009
  26     -0.000000000052
  27      0.000000000964
  28     -0.000000000506
  29     -0.000106540042
  30     -0.000000000143
  31      0.000000000284
  32     -0.000020453814
  33      0.000000000911
  34      0.000000000017
  35     -0.000000000067
  36     -0.000002500475
  37      0.000000000020
  38     -0.000000000007
  39     -0.000000001175
  40     -0.000000000476
  41      0.000000000063
  42     -0.000000234079
  43      0.000000000127
  44      0.000000000074
  45      0.000000000586
  46     -0.000000000040
  47     -0.000000233690
  48      0.000000000061
 Ene=  -0.43882910340800E+00
 Spin= Alpha
 Occup=    1.000000
   1     -0.000000002430
   2     -0.000000014992
   3      0.000000035917
   4     -0.000001077515
   5     -0.313398663401
   6      0.000000010013
   7     -0.000000535631
   8     -0.121173316610
   9      0.000000000416
  10     -0.000000000694
  11      0.000000085128
  12     -0.011020104311
  13     -0.000000000615
  14      0.000000000053
  15     -0.196144954607
  16     -0.082338921001
  17     -0.000000021659
  18      0.002131164530
  19      0.005750149867
  20      0.196144984651
  21      0.082338925199
  22     -0.000000021647
  23      0.002131170478
  24     -0.005750152879
  25     -0.000000000260
  26     -0.000000000776
  27     -0.000000005644
  28     -0.000002743937
  29     -0.123197456118
  30      0.000000002775
  31     -0.000001059693
  32     -0.061156219804
  33      0.000000000186
  34      0.000000001331
  35      0.000000096567
  36     -0.009700992285
  37     -0.000000000164
  38      0.000000000180
  39     -0.000001721368
  40     -0.000000723736
  41      0.000000018824
  42     -0.002470723828
  43     -0.000000049842
  44      0.000001717823
  45      0.000000722313
  46      0.000000018602
  47     -0.002470723664
  48      0.000000050483
 Ene=  -0.43872079789387E+00
 Spin= Alpha
 Occup=    0.999998
   1     -0.000000002520
   2     -0.000000014517
   3      0.000000042559
   4      0.000002866030
   5     -0.313351479549
   6      0.000000024035
   7      0.000001426154
   8     -0.121234113413
   9      0.000000008647
  10     -0.000000001063
  11     -0.000000226579
  12     -0.011027366889
  13     -0.000000000804
  14      0.000000000028
  15     -0.196242435872
  16     -0.082400516019
  17      0.000000057667
  18      0.002142541616
  19      0.005756515677
  20      0.196242475372
  21      0.082400516682
  22      0.000000057761
  23      0.002142547914
  24     -0.005756518377
  25      0.000000000818
  26     -0.000000002804
  27     -0.000000008181
  28      0.000007312999
  29     -0.122688532018
  30     -0.000000010362
  31      0.000002831081
  32     -0.061075231084
  33     -0.000000004779
  34      0.000000001067
  35     -0.000000257167
  36     -0.009702448840
  37      0.000000000116
  38     -0.000000000257
  39      0.000004586379
  40      0.000001925121
  41     -0.000000050418
  42     -0.002467600560
  43      0.000000134466
  44     -0.000004577078
  45     -0.000001921153
  46     -0.000000050187
  47     -0.002467600435
  48     -0.000000134555
 Ene=  -0.42230231637397E+00
 Spin= Alpha
 Occup=    0.999954
   1      0.000000234251
   2     -0.000000649996
   3      0.000000064016
   4      0.000000009137
   5     -0.000000022205
   6      0.000007122260
   7      0.000000003041
   8     -0.000000009075
   9      0.000002626785
  10     -0.000000208480
  11     -0.000000000411
  12     -0.000000000883
  13     -0.000000151861
  14     -0.000000565322
  15      0.000002637869
  16      0.000001154988
  17      0.000000885640
  18     -0.000000128746
  19      0.000000074902
  20      0.000002668135
  21      0.000001168525
  22     -0.000000885151
  23      0.000000129349
  24      0.000000073948
  25      0.000000234233
  26     -0.000000649946
  27      0.000000064349
  28      0.000000007854
  29     -0.000000003118
  30     -0.000007122174
  31      0.000000004715
  32     -0.000000003411
  33     -0.000002626704
  34     -0.000000208470
  35     -0.000000000097
  36     -0.000000000655
  37      0.000000151614
  38      0.000000564979
  39      0.000002659360
  40      0.000001164217
  41     -0.000000129346
  42     -0.000000885505
  43     -0.000000074105
  44      0.000002646531
  45      0.000001159020
  46      0.000000128793
  47      0.000000884979
  48     -0.000000074671
 Ene=  -0.41409362932342E+00
 Spin= Alpha
 Occup=    0.000000
   1     -0.000000000048
   2      0.000000000315
   3      0.000000000042
   4     -0.000000001237
   5      0.000000005377
   6     -0.000000004926
   7     -0.000000000103
   8      0.000000002445
   9     -0.000000002525
  10      0.000000000344
  11     -0.000000000126
  12      0.000000000407
  13      0.000000000213
  14      0.000000836608
  15      0.000000001658
  16      0.000000000751
  17     -0.000000487898
  18      0.000000000042
  19     -0.000000000227
  20     -0.000000006833
  21     -0.000000002978
  22      0.000000487851
  23     -0.000000000336
  24      0.000000000193
  25     -0.000000000463
  26      0.000000001102
  27      0.000000000141
  28      0.000000002009
  29      0.000000002157
  30      0.000000006322
  31      0.000000000801
  32      0.000000001098
  33      0.000000001880
  34      0.000000000186
  35     -0.000000000061
  36      0.000000000127
  37     -0.000000000130
  38      0.000000836712
  39     -0.000000000676
  40     -0.000000000352
  41      0.000000000029
  42     -0.000000487695
  43      0.000000000105
  44     -0.000000003423
  45     -0.000000001489
  46     -0.000000000067
  47      0.000000487957
  48     -0.000000000099
 Ene=  -0.41402152637875E+00
 Spin= Alpha
 Occup=    0.000046
   1     -0.000000002262
   2      0.000000006135
   3     -0.000000000308
   4     -0.000000001479
   5     -0.000000005007
   6     -0.000000056157
   7     -0.000000000212
   8     -0.000000003123
   9     -0.000000021756
  10      0.000000001597
  11     -0.000000000325
  12     -0.000000000014
  13      0.000000001052
  14      0.000000130438
  15     -0.000000025047
  16     -0.000000010923
  17     -0.000000449837
  18      0.000000001217
  19     -0.000000000366
  20     -0.000000017195
  21     -0.000000007905
  22      0.000000449789
  23     -0.000000000964
  24     -0.000000000742
  25     -0.000000002071
  26      0.000000005710
  27     -0.000000000544
  28      0.000000002071
  29     -0.000000002130
  30      0.000000054815
  31      0.000000000925
  32     -0.000000000947
  33      0.000000021903
  34      0.000000001646
  35     -0.000000000071
  36     -0.000000000284
  37     -0.000000001088
  38     -0.000000130456
  39     -0.000000020150
  40     -0.000000008850
  41      0.000000001153
  42      0.000000449805
  43      0.000000000565
  44     -0.000000022790
  45     -0.000000009945
  46     -0.000000001170
  47     -0.000000449946
  48      0.000000000345
 Ene=  -0.40364133077477E+00
 Spin= Alpha
 Occup=    0.000002
   1     -0.000000000071
   2      0.000000001431
   3      0.000000003182
   4      0.000000004062
   5     -0.000194357777
   6      0.000000002326
   7      0.000000002265
   8     -0.000195419347
   9     -0.000000008436
  10     -0.000000000031
  11     -0.000000000523
  12      0.000007393138
  13      0.000000002187
  14      0.000000000155
  15     -0.000219461049
  16     -0.000074924737
  17      0.000000000015
  18      0.000019157902
  19      0.000018147664
  20      0.000219456961
  21      0.000074930879
  22     -0.000000000023
  23      0.000019158560
  24     -0.000018147188
  25      0.000000000103
  26     -0.000000000692
  27     -0.000000004389
  28      0.000000009196
  29     -0.000502072359
  30     -0.000000001976
  31      0.000000003236
  32     -0.000165933809
  33     -0.000000004827
  34     -0.000000000108
  35     -0.000000000254
  36     -0.000011213829
  37      0.000000000175
  38     -0.000000000091
  39      0.000000002783
  40      0.000000001636
  41      0.000000000101
  42     -0.000008883778
  43      0.000000000132
  44     -0.000000006257
  45     -0.000000004607
  46     -0.000000000298
  47     -0.000008885997
  48     -0.000000000209
 Ene=  -0.21692954575271E+00
 Spin= Alpha
 Occup=    1.000000
   1      0.000000002113
   2     -0.000000016734
   3      0.000000004916
   4     -0.000000808742
   5     -0.073206037582
   6     -0.000000004456
   7     -0.000000697141
   8     -0.049413922054
   9      0.000000011177
  10     -0.000000000096
  11     -0.000000002694
  12     -0.026018654651
  13     -0.000000002763
  14     -0.000000000121
  15     -0.112331930301
  16     -0.098797879857
  17     -0.000000025033
  18     -0.000156283013
  19     -0.001577432120
  20      0.112331941300
  21      0.098797874354
  22     -0.000000025056
  23     -0.000156281586
  24      0.001577430467
  25     -0.000000001025
  26      0.000000001596
  27      0.000000010843
  28      0.000000137932
  29      0.423123118817
  30      0.000000007180
  31      0.000000095507
  32      0.364425765368
  33      0.000000013148
  34      0.000000000454
  35     -0.000000049540
  36     -0.001457384709
  37     -0.000000000443
  38      0.000000000044
  39      0.000000215293
  40      0.000000187982
  41      0.000000000010
  42      0.013147036837
  43     -0.000000002629
  44     -0.000000215502
  45     -0.000000186656
  46      0.000000000134
  47      0.013147039444
  48      0.000000003058
 Ene=  -0.21685095940699E+00
 Spin= Alpha
 Occup=    1.000000
   1     -0.000000001383
   2      0.000000012838
   3     -0.000000024558
   4     -0.000020125190
   5      0.072981757071
   6     -0.000000001034
   7     -0.000017341409
   8      0.049588325055
   9     -0.000000001440
  10      0.000000000062
  11     -0.000000069351
  12      0.026009271414
  13     -0.000000001989
  14     -0.000000000182
  15      0.112602711236
  16      0.099084137170
  17     -0.000000625361
  18      0.000116663876
  19      0.001552752415
  20     -0.112602715216
  21     -0.099084132120
  22     -0.000000625443
  23      0.000116660615
  24     -0.001552751020
  25     -0.000000000233
  26      0.000000001819
  27      0.000000002184
  28      0.000003473118
  29     -0.422960257317
  30     -0.000000002200
  31      0.000002361365
  32     -0.364452305067
  33      0.000000001871
  34     -0.000000000112
  35     -0.000001237670
  36      0.001457372344
  37      0.000000000213
  38      0.000000000195
  39      0.000005358471
  40      0.000004714342
  41      0.000000005861
  42     -0.013143965322
  43     -0.000000073847
  44     -0.000005357785
  45     -0.000004712555
  46      0.000000005666
  47     -0.013143964324
  48      0.000000073880
 Ene=  -0.54289953430835E-01
 Spin= Alpha
 Occup=    0.000000
   1      0.000000000095
   2     -0.000000000173
   3     -0.000000000797
   4      0.000000001023
   5      0.000000001480
   6     -0.000000000245
   7      0.000000003793
   8      0.000000001001
   9      0.000000000365
  10      0.000000000080
  11      0.000000000035
  12     -0.000000000224
  13      0.000000000028
  14     -0.000001513139
  15     -0.000000001439
  16     -0.000000002740
  17     -0.000000457867
  18      0.000000000128
  19      0.000000000081
  20      0.000000001762
  21      0.000000003727
  22      0.000000458084
  23      0.000000000203
  24      0.000000000051
  25      0.000000000054
  26     -0.000000000033
  27     -0.000000000111
  28      0.000000000069
  29      0.000000001106
  30      0.000000000339
  31     -0.000000000743
  32      0.000000002414
  33     -0.000000000149
  34      0.000000000016
  35     -0.000000000065
  36      0.000000000108
  37     -0.000000000005
  38      0.000001513641
  39     -0.000000000415
  40     -0.000000000529
  41     -0.000000000016
  42      0.000000458247
  43     -0.000000000109
  44      0.000000000838
  45      0.000000000859
  46      0.000000000004
  47     -0.000000458629
  48      0.000000000053
 Ene=  -0.54269497353707E-01
 Spin= Alpha
 Occup=    0.000000
   1      0.000000000087
   2     -0.000000000223
   3     -0.000000002334
   4      0.000000001049
   5     -0.000000001691
   6     -0.000000000839
   7      0.000000003850
   8      0.000000000765
   9      0.000000000609
  10      0.000000000108
  11      0.000000000101
  12      0.000000000175
  13     -0.000000000050
  14     -0.000001865690
  15      0.000000001396
  16      0.000000003155
  17     -0.000000632539
  18     -0.000000000105
  19     -0.000000000079
  20     -0.000000000724
  21     -0.000000001542
  22      0.000000632759
  23     -0.000000000079
  24      0.000000000080
  25     -0.000000000066
  26      0.000000000173
  27      0.000000002201
  28     -0.000000000014
  29     -0.000000001112
  30     -0.000000000496
  31     -0.000000001136
  32     -0.000000002933
  33      0.000000000764
  34     -0.000000000003
  35     -0.000000000093
  36      0.000000000070
  37      0.000000000004
  38     -0.000001865376
  39     -0.000000000699
  40     -0.000000001134
  41      0.000000000021
  42     -0.000000632838
  43     -0.000000000001
  44      0.000000000377
  45     -0.000000000776
  46     -0.000000000027
  47      0.000000633231
  48      0.000000000332
 Ene=   0.85665786713835E-01
 Spin= Alpha
 Occup=    0.000000
   1     -0.000007017954
   2      0.000012181317
   3      0.000119883299
   4      0.000000000527
   5     -0.000000002145
   6      0.000003351133
   7     -0.000000006884
   8     -0.000000005041
   9      0.000006778970
  10     -0.000000573538
  11     -0.000000000088
  12      0.000000000346
  13      0.000000966695
  14     -0.000003318689
  15     -0.000004763408
  16     -0.000063974300
  17     -0.000002299052
  18     -0.000000426962
  19     -0.000000213340
  20     -0.000004766080
  21     -0.000063990793
  22      0.000002298802
  23      0.000000427227
  24     -0.000000213512
  25      0.000007019367
  26     -0.000012184997
  27     -0.000119903402
  28      0.000000005543
  29      0.000000000744
  30      0.000003353029
  31      0.000000008315
  32     -0.000000005633
  33      0.000006786756
  34      0.000000573465
  35     -0.000000000217
  36     -0.000000000154
  37      0.000000966318
  38     -0.000003318254
  39      0.000004764708
  40      0.000063985070
  41      0.000000427388
  42     -0.000002299469
  43     -0.000000213488
  44      0.000004766137
  45      0.000064010257
  46     -0.000000427028
  47      0.000002300323
  48     -0.000000212815
 Ene=   0.90271503565935E-01
 Spin= Alpha
 Occup=    0.000000
   1     -0.000000433997
   2      0.000001008839
   3      0.000006736039
   4      0.000000000338
   5      0.000000002206
   6      0.000000782615
   7     -0.000000004960
   8      0.000000006198
   9      0.000002381123
  10      0.000000022241
  11     -0.000000000022
  12     -0.000000000414
  13      0.000000003820
  14     -0.000001896667
  15     -0.000000104974
  16     -0.000005081066
  17     -0.000002533000
  18     -0.000000022066
  19      0.000000004818
  20     -0.000000101435
  21     -0.000005061966
  22      0.000002533157
  23      0.000000022100
  24      0.000000004981
  25     -0.000000435572
  26      0.000001011659
  27      0.000006762423
  28      0.000000003084
  29     -0.000000000700
  30     -0.000000783256
  31      0.000000005220
  32      0.000000005996
  33     -0.000002383514
  34      0.000000022092
  35     -0.000000000151
  36      0.000000000259
  37     -0.000000003508
  38      0.000001896590
  39     -0.000000104375
  40     -0.000005093708
  41     -0.000000022063
  42      0.000002533458
  43     -0.000000005061
  44     -0.000000103833
  45     -0.000005079351
  46      0.000000022271
  47     -0.000002534274
  48     -0.000000004716
 Ene=   0.99001978664255E-01
 Spin= Alpha
 Occup=    0.000000
   1     -0.000000000527
   2      0.000000001041
   3      0.000000011584
   4     -0.000000000242
   5      0.000206468521
   6     -0.000000002542
   7     -0.000000000703
   8      0.000370882264
   9     -0.000000013039
  10     -0.000000000164
  11     -0.000000000226
  12     -0.000002144151
  13      0.000000001263
  14      0.000000000195
  15     -0.000056953213
  16     -0.000595229731
  17     -0.000000000028
  18      0.000004421795
  19      0.000003142155
  20      0.000056950303
  21      0.000595239590
  22     -0.000000000093
  23      0.000004422552
  24     -0.000003142670
  25      0.000000001491
  26     -0.000000003726
  27     -0.000000024535
  28      0.000000001235
  29     -0.000042222761
  30     -0.000000003456
  31      0.000000002587
  32      0.000033882007
  33     -0.000000007801
  34     -0.000000000168
  35      0.000000000019
  36      0.000006634317
  37      0.000000000048
  38     -0.000000000144
  39     -0.000000001360
  40      0.000000004307
  41      0.000000000034
  42      0.000001879503
  43     -0.000000000020
  44     -0.000000000269
  45      0.000000009265
  46     -0.000000000095
  47      0.000001879602
  48     -0.000000000196
 Ene=   0.10284351709710E+00
 Spin= Alpha
 Occup=    0.000000
   1     -0.000000001153
   2      0.000000002582
   3      0.000000017787
   4     -0.000000000203
   5     -0.000107108718
   6      0.000000006229
   7     -0.000000001321
   8     -0.000217265257
   9      0.000000014378
  10      0.000000000086
  11      0.000000000172
  12     -0.000002334154
  13     -0.000000000444
  14      0.000000000057
  15      0.000014510439
  16      0.000303728244
  17     -0.000000000018
  18     -0.000001450769
  19     -0.000004569803
  20     -0.000014511249
  21     -0.000303768828
  22     -0.000000000064
  23     -0.000001450729
  24      0.000004570036
  25     -0.000000001142
  26      0.000000002607
  27      0.000000019247
  28      0.000000001240
  29     -0.000018670909
  30      0.000000002588
  31      0.000000003839
  32      0.000126256900
  33      0.000000000405
  34      0.000000000110