[Molden Format]
[Title]
generated by TRESC, real part1 of MOs of job twisted_C2H4
 
[Atoms] AU
 C   1   6    0.0000000000    0.0000000000    1.3668709329
 H   2   1    0.0000000000    1.7631351343    2.4609882652
 H   3   1    0.0000000000   -1.7631351343    2.4609882652
 C   4   6    0.0000000000    0.0000000000   -1.3668709329
 H   5   1    1.7631351343    0.0000000000   -2.4609882652
 H   6   1   -1.7631351343    0.0000000000   -2.4609882652
[GTO]
  1 0
 s  5 1.0
     1238.4016938000        0.0059599745
      186.2900499200        0.0422621111
       42.2511763500        0.1866575214
       11.6765579300        0.4675815865
        3.5930506500        0.4422897287
 s  1 1.0
        0.4024514700        1.0000000000
 s  1 1.0
        0.1309018300        1.0000000000
 p  3 1.0
        9.4680970600        0.0570294585
        2.0103545100        0.3130471495
        0.5477100500        0.7605135301
 p  1 1.0
        0.1526861400        1.0000000000
 d  1 1.0
        0.8000000000        1.0000000000
 
  2 0
 s  3 1.0
       13.0107010000        0.0391282527
        1.9622572000        0.2855840539
        0.4445379600        0.7689908602
 s  1 1.0
        0.1219496200        1.0000000000
 p  1 1.0
        0.8000000000        1.0000000000
 
  3 0
 s  3 1.0
       13.0107010000        0.0391282527
        1.9622572000        0.2855840539
        0.4445379600        0.7689908602
 s  1 1.0
        0.1219496200        1.0000000000
 p  1 1.0
        0.8000000000        1.0000000000
 
  4 0
 s  5 1.0
     1238.4016938000        0.0059599745
      186.2900499200        0.0422621111
       42.2511763500        0.1866575214
       11.6765579300        0.4675815865
        3.5930506500        0.4422897287
 s  1 1.0
        0.4024514700        1.0000000000
 s  1 1.0
        0.1309018300        1.0000000000
 p  3 1.0
        9.4680970600        0.0570294585
        2.0103545100        0.3130471495
        0.5477100500        0.7605135301
 p  1 1.0
        0.1526861400        1.0000000000
 d  1 1.0
        0.8000000000        1.0000000000
 
  5 0
 s  3 1.0
       13.0107010000        0.0391282527
        1.9622572000        0.2855840539
        0.4445379600        0.7689908602
 s  1 1.0
        0.1219496200        1.0000000000
 p  1 1.0
        0.8000000000        1.0000000000
 
  6 0
 s  3 1.0
       13.0107010000        0.0391282527
        1.9622572000        0.2855840539
        0.4445379600        0.7689908602
 s  1 1.0
        0.1219496200        1.0000000000
 p  1 1.0
        0.8000000000        1.0000000000
 
[5D]
[7F]
[9G]
[MO]
 Ene=  -0.10216032526435E+02
 Spin= Alpha
 Occup=    1.000000
   1     -0.699043878164
   2     -0.035154298848
   3      0.020412921881
   4     -0.000000000045
   5     -0.000000000924
   6     -0.002886594747
   7      0.000000000139
   8      0.000000000066
   9      0.001240470910
  10      0.000974982267
  11     -0.000000000128
  12      0.000000000064
  13      0.001586088975
  14     -0.000000000059
  15      0.003371205034
  16     -0.006237534128
  17      0.000000000011
  18     -0.002096532469
  19     -0.000978426133
  20      0.003371205396
  21     -0.006237534615
  22     -0.000000000206
  23      0.002096532569
  24     -0.000978426123
  25     -0.697639367804
  26     -0.035074191690
  27      0.020345436771
  28     -0.000000000087
  29      0.000000000060
  30      0.002888872021
  31      0.000000000033
  32     -0.000000000013
  33     -0.001248736933
  34      0.000979503773
  35      0.000000000053
  36      0.000000000062
  37     -0.001582676625
  38     -0.000000000029
  39      0.003364428741
  40     -0.006227325289
  41     -0.002091473843
  42      0.000000000036
  43      0.000975382058
  44      0.003364428729
  45     -0.006227325209
  46      0.002091473262
  47      0.000000000559
  48      0.000975381871
 Ene=  -0.10216012317587E+02
 Spin= Alpha
 Occup=    1.000000
   1     -0.696840021568
   2     -0.039748321890
   3      0.033493193592
   4      0.000000000076
   5     -0.000000001475
   6      0.001133620962
   7     -0.000000000071
   8      0.000000000445
   9     -0.004105712553
  10     -0.002246001787
  11      0.000000000145
  12     -0.000000000038
  13      0.001693636047
  14     -0.000000000271
  15      0.003362260336
  16     -0.005063902435
  17      0.000000000038
  18     -0.002510251502
  19     -0.001510913506
  20      0.003362260584
  21     -0.005063902672
  22      0.000000000134
  23      0.002510251302
  24     -0.001510913427
  25      0.698246140463
  26      0.039819023196
  27     -0.033534225993
  28      0.000000000093
  29     -0.000000000080
  30      0.001127806949
  31     -0.000000000309
  32     -0.000000000117
  33     -0.004103206367
  34      0.002244033867
  35     -0.000000000134
  36      0.000000000082
  37      0.001696827474
  38     -0.000000000018
  39     -0.003369041756
  40      0.005076451547
  41      0.002514467781
  42     -0.000000000061
  43     -0.001512880356
  44     -0.003369042027
  45      0.005076451436
  46     -0.002514466992
  47      0.000000000837
  48     -0.001512880302
 Ene=  -0.10202527750765E+02
 Spin= Alpha
 Occup=    0.000000
   1      0.000000000754
   2      0.000000000041
   3     -0.000000000025
   4     -0.000000056139
   5      0.000000000004
   6     -0.000000000039
   7      0.000000037499
   8      0.000000000011
   9      0.000000000014
  10      0.000000000020
  11     -0.000000259148
  12      0.000000000016
  13      0.000000000003
  14      0.000000000008
  15     -0.000000000002
  16     -0.000000000002
  17      0.000000043135
  18      0.000000000000
  19     -0.000000000002
  20      0.000000000008
  21      0.000000000003
  22      0.000000043145
  23      0.000000000008
  24     -0.000000000005
  25     -0.000000000764
  26     -0.000000000046
  27      0.000000000025
  28      0.000000137931
  29      0.000000000001
  30     -0.000000000027
  31     -0.000000013427
  32     -0.000000000004
  33      0.000000000006
  34     -0.000000000026
  35     -0.000000141650
  36     -0.000000000001
  37     -0.000000000013
  38     -0.000000000001
  39     -0.000000063666
  40      0.000000002207
  41      0.000000019467
  42     -0.000000000005
  43     -0.000000091589
  44      0.000000063696
  45     -0.000000002221
  46      0.000000019474
  47     -0.000000000003
  48      0.000000091609
 Ene=  -0.10202480171392E+02
 Spin= Alpha
 Occup=    0.000000
   1     -0.000000000747
   2     -0.000000000035
   3      0.000000000018
   4      0.000000007861
   5      0.000000000004
   6      0.000000000017
   7     -0.000000027509
   8     -0.000000000007
   9     -0.000000000006
  10      0.000000000008
  11     -0.000000098973
  12      0.000000000005
  13     -0.000000000003
  14      0.000000000009
  15     -0.000000000003
  16     -0.000000000005
  17      0.000000038034
  18      0.000000000003
  19     -0.000000000000
  20      0.000000000000
  21     -0.000000000010
  22      0.000000038041
  23     -0.000000000003
  24      0.000000000003
  25     -0.000000000739
  26     -0.000000000028
  27      0.000000000032
  28      0.000000066934
  29      0.000000000002
  30     -0.000000000020
  31     -0.000000005822
  32     -0.000000000001
  33      0.000000000012
  34      0.000000000016
  35     -0.000000101788
  36     -0.000000000000
  37      0.000000000017
  38     -0.000000000001
  39     -0.000000046172
  40      0.000000014390
  41      0.000000089630
  42      0.000000000002
  43      0.000000065025
  44      0.000000046121
  45     -0.000000014387
  46      0.000000089626
  47      0.000000000003
  48     -0.000000065044
 Ene=  -0.75583270446665E+00
 Spin= Alpha
 Occup=    1.000000
   1      0.199800602688
   2     -0.396693227622
   3     -0.129530829884
   4      0.000000000133
   5     -0.000000031164
   6      0.090628521254
   7      0.000000000404
   8      0.000000005035
   9      0.018611697152
  10     -0.008023422451
  11     -0.000000001017
  12     -0.000000001809
  13     -0.003302962252
  14     -0.000000001314
  15     -0.102184315600
  16     -0.014612900743
  17     -0.000000000459
  18      0.010866522042
  19      0.007589545323
  20     -0.102184299371
  21     -0.014612894992
  22     -0.000000000610
  23     -0.010866525236
  24      0.007589547234
  25      0.199800614578
  26     -0.396693268604
  27     -0.129530799439
  28      0.000000000631
  29     -0.000000000415
  30     -0.090628513148
  31      0.000000003181
  32     -0.000000002032
  33     -0.018611697573
  34     -0.008023418214
  35      0.000000000975
  36     -0.000000000404
  37      0.003302953805
  38      0.000000000037
  39     -0.102184311914
  40     -0.014612908039
  41      0.010866519951
  42     -0.000000000312
  43     -0.007589543557
  44     -0.102184310530
  45     -0.014612909511
  46     -0.010866524061
  47      0.000000005146
  48     -0.007589541434
 Ene=  -0.70978358328277E+00
 Spin= Alpha
 Occup=    0.000000
   1      0.000000000516
   2     -0.000000001097
   3     -0.000000000713
   4     -0.000036919803
   5      0.000000000070
   6      0.000000000431
   7      0.000005493618
   8      0.000000000332
   9      0.000000000250
  10     -0.000000000039
  11      0.000000955899
  12      0.000000000130
  13      0.000000000122
  14     -0.000000000015
  15     -0.000000000258
  16     -0.000000000136
  17     -0.000000517423
  18      0.000000000087
  19      0.000000000038
  20     -0.000000000520
  21     -0.000000000179
  22     -0.000000517330
  23      0.000000000001
  24     -0.000000000093
  25     -0.000000000388
  26      0.000000000795
  27      0.000000000875
  28      0.000043145133
  29     -0.000000000139
  30     -0.000000002147
  31     -0.000010060122
  32     -0.000000000261
  33      0.000000000415
  34     -0.000000000003
  35     -0.000002967283
  36      0.000000000046
  37     -0.000000000268
  38      0.000000000024
  39      0.000004895274
  40      0.000006736075
  41      0.000004014979
  42     -0.000000000082
  43     -0.000001747531
  44     -0.000004894111
  45     -0.000006736086
  46      0.000004015040
  47     -0.000000000051
  48      0.000001747944
 Ene=  -0.60056143483801E+00
 Spin= Alpha
 Occup=    1.000000
   1      0.163703069558
   2     -0.336948775309
   3     -0.173508869200
   4     -0.000000000821
   5     -0.000000034861
   6     -0.151813292911
   7      0.000000001213
   8     -0.000000003861
   9     -0.038939434779
  10      0.010170702043
  11      0.000000001090
  12     -0.000000001407
  13      0.003206342079
  14     -0.000000000590
  15     -0.172461976018
  16     -0.038277049711
  17      0.000000000293
  18      0.012798686137
  19      0.004262704931
  20     -0.172461949557
  21     -0.038277048791
  22      0.000000000309
  23     -0.012798689289
  24      0.004262705681
  25     -0.163703063030
  26      0.336948776895
  27      0.173508833213
  28      0.000000002949
  29     -0.000000002800
  30     -0.151813287133
  31     -0.000000006468
  32     -0.000000000661
  33     -0.038939424394
  34     -0.010170704374
  35     -0.000000001403
  36     -0.000000000512
  37      0.003206348199
  38     -0.000000000026
  39      0.172461952785
  40      0.038277058883
  41     -0.012798683453
  42      0.000000000053
  43      0.004262703854
  44      0.172461950596
  45      0.038277055572
  46      0.012798687956
  47      0.000000003644
  48      0.004262701556
 Ene=  -0.56185025444235E+00
 Spin= Alpha
 Occup=    0.000000
   1      0.000000000408
   2     -0.000000000908
   3      0.000000000109
   4      0.000106537217
   5      0.000000000409
   6     -0.000000000976
   7      0.000020452441
   8      0.000000000560
   9     -0.000000000215
  10     -0.000000000308
  11     -0.000002499887
  12      0.000000000153
  13     -0.000000000009
  14      0.000000000033
  15     -0.000000000200
  16     -0.000000000047
  17      0.000000234160
  18      0.000000000019
  19      0.000000000041
  20     -0.000000000889
  21     -0.000000000289
  22      0.000000234067
  23     -0.000000000021
  24     -0.000000000005
  25      0.000000000369
  26     -0.000000000870
  27      0.000000000173
  28      0.000137564213
  29     -0.000000000112
  30      0.000000003978
  31      0.000010346320
  32     -0.000000000096
  33     -0.000000000768
  34      0.000000000079
  35     -0.000005954897
  36      0.000000000078
  37     -0.000000000641
  38      0.000000000020
  39      0.000040288275
  40      0.000021844056
  41      0.000005308030
  42     -0.000000000085
  43     -0.000002775232
  44     -0.000040288304
  45     -0.000021845782
  46      0.000005308404
  47     -0.000000000043
  48      0.000002775853
 Ene=  -0.43882910340800E+00
 Spin= Alpha
 Occup=    1.000000
   1      0.000000000407
   2     -0.000000002070
   3     -0.000000002232
   4      0.123193830372
   5     -0.000000492450
   6      0.000000033151
   7      0.061154417366
   8     -0.000000188463
   9      0.000000012815
  10     -0.000000001399
  11     -0.009700705530
  12     -0.000000016685
  13     -0.000000001010
  14     -0.000000000469
  15     -0.000000294572
  16     -0.000000123656
  17      0.002470651430
  18      0.000000002848
  19      0.000000009317
  20      0.000000319761
  21      0.000000133825
  22      0.002470651040
  23      0.000000003793
  24     -0.000000008674
  25      0.000000001641
  26     -0.000000007819
  27      0.000000009995
  28      0.313389410270
  29     -0.000000195792
  30     -0.000000033092
  31      0.121169733283
  32     -0.000000097482
  33     -0.000000009206
  34     -0.000000000679
  35     -0.011019778582
  36     -0.000000015276
  37     -0.000000000422
  38      0.000000000104
  39      0.196139186273
  40      0.082336495421
  41     -0.002131105015
  42     -0.000000004171
  43      0.005749981129
  44     -0.196139159590
  45     -0.082336489272
  46     -0.002131103026
  47     -0.000000004106
  48     -0.005749979719
 Ene=  -0.43872079789387E+00
 Spin= Alpha
 Occup=    0.999998
   1      0.000000000097
   2      0.000000000221
   3      0.000000002600
   4     -0.122692183456
   5     -0.000005060852
   6     -0.000000003044
   7     -0.061077045308
   8     -0.000001959292
   9     -0.000000002762
  10     -0.000000000297
  11      0.009702735676
  12     -0.000000178251
  13     -0.000000000343
  14     -0.000000000084
  15     -0.000003170882
  16     -0.000001330864
  17     -0.002467673476
  18      0.000000034573
  19      0.000000092991
  20      0.000003168720
  21      0.000001331051
  22     -0.002467673771
  23      0.000000034457
  24     -0.000000093026
  25     -0.000000000374
  26      0.000000004259
  27     -0.000000008158
  28     -0.313360730888
  29     -0.000001983361
  30      0.000000003066
  31     -0.121237687304
  32     -0.000000985380
  33     -0.000000001255
  34     -0.000000000083
  35      0.011027691617
  36     -0.000000156734
  37      0.000000000542
  38     -0.000000000041
  39     -0.196248249191
  40     -0.082402950984
  41      0.002142608505
  42     -0.000000039746
  43     -0.005756687154
  44      0.196248243689
  45      0.082402951016
  46      0.002142607598
  47     -0.000000039735
  48      0.005756685763
 Ene=  -0.42230231637397E+00
 Spin= Alpha
 Occup=    0.999954
   1     -0.013582396625
   2      0.037685479744
   3     -0.003713596073
   4      0.000000008970
   5     -0.000000018033
   6     -0.412985166219
   7      0.000000006035
   8     -0.000000011851
   9     -0.152309700501
  10      0.012088356909
  11     -0.000000000809
  12     -0.000000000047
  13      0.008783065566
  14     -0.000000000511
  15     -0.153836516603
  16     -0.067362615317
  17      0.000000000436
  18      0.007481931044
  19     -0.004315121391
  20     -0.153836487562
  21     -0.067362605782
  22      0.000000000020
  23     -0.007481929024
  24     -0.004315122438
  25     -0.013582394937
  26      0.037685479228
  27     -0.003713599458
  28      0.000000024812
  29     -0.000000011248
  30      0.412985179876
  31      0.000000008522
  32     -0.000000001792
  33      0.152309698286
  34      0.012088357874
  35     -0.000000001182
  36     -0.000000000650
  37     -0.008783064970
  38      0.000000000007
  39     -0.153836490259
  40     -0.067362606039
  41      0.007481929410
  42     -0.000000000330
  43      0.004315122544
  44     -0.153836529484
  45     -0.067362624390
  46     -0.007481930283
  47     -0.000000000799
  48      0.004315122812
 Ene=  -0.41409362932342E+00
 Spin= Alpha
 Occup=    0.000000
   1     -0.000040662124
   2      0.000081665370
   3      0.000050462581
   4      0.000000002734
   5     -0.000000002729
   6     -0.000130259288
   7      0.000000001343
   8     -0.000000003420
   9      0.000032661889
  10      0.000009395551
  11     -0.000000000105
  12      0.000000000046
  13      0.000004537315
  14      0.000000000962
  15      0.000050349079
  16      0.000009387450
  17      0.000000000125
  18     -0.000012301169
  19     -0.000007459729
  20      0.000050350865
  21      0.000009384762
  22     -0.000000000454
  23      0.000012299925
  24     -0.000007459601
  25      0.000040656520
  26     -0.000081648634
  27     -0.000050463737
  28      0.000000007927
  29      0.000000000230
  30     -0.000130085605
  31      0.000000002128
  32      0.000000002915
  33      0.000032724131
  34     -0.000009391268
  35     -0.000000000242
  36     -0.000000000024
  37      0.000004533199
  38     -0.000000000016
  39     -0.000050411848
  40     -0.000009416036
  41      0.000012302869
  42      0.000000000035
  43     -0.000007457645
  44     -0.000050414480
  45     -0.000009416208
  46     -0.000012303144
  47     -0.000000000051
  48     -0.000007460756
 Ene=  -0.41402152637875E+00
 Spin= Alpha
 Occup=    0.000046
   1      0.000107603952
   2     -0.000293168952
   3      0.000018642410
   4     -0.000000000121
   5     -0.000000001253
   6      0.002751706409
   7      0.000000000814
   8     -0.000000000300
   9      0.001084042538
  10     -0.000087185184
  11     -0.000000000130
  12     -0.000000000030
  13     -0.000057048750
  14     -0.000000000628
  15      0.001057499391
  16      0.000467194308
  17      0.000000000049
  18     -0.000057247687
  19      0.000026889728
  20      0.001057499673
  21      0.000467192162
  22     -0.000000000192
  23      0.000057248210
  24      0.000026889888
  25      0.000107600746
  26     -0.000293163740
  27      0.000018663396
  28      0.000000006957
  29      0.000000001294
  30     -0.002751696759
  31     -0.000000000159
  32      0.000000001952
  33     -0.001084037998
  34     -0.000087185258
  35     -0.000000000754
  36      0.000000000014
  37      0.000057048455
  38     -0.000000000013
  39      0.001057508255
  40      0.000467196785
  41     -0.000057249110
  42     -0.000000000110
  43     -0.000026889348
  44      0.001057494526
  45      0.000467186727
  46      0.000057249108
  47      0.000000000019
  48     -0.000026887950
 Ene=  -0.40364133077477E+00
 Spin= Alpha
 Occup=    0.000002
   1     -0.000000000032
   2     -0.000000000056
   3     -0.000000001032
   4     -0.000502069848
   5     -0.000000004912
   6      0.000000001305
   7     -0.000165937055
   8     -0.000000000410
   9      0.000000002044
  10      0.000000000331
  11      0.000011215236
  12      0.000000000881
  13     -0.000000000011
  14     -0.000000000080
  15     -0.000000002319
  16     -0.000000001547
  17     -0.000008884528
  18      0.000000000155
  19      0.000000000173
  20      0.000000003060
  21      0.000000000544
  22     -0.000008884067
  23      0.000000000477
  24     -0.000000000183
  25      0.000000000474
  26     -0.000000001177
  27      0.000000003835
  28     -0.000194420400
  29     -0.000000004036
  30      0.000000001619
  31     -0.000195461604
  32     -0.000000003338
  33      0.000000000510
  34      0.000000000306
  35     -0.000007391049
  36     -0.000000000266
  37     -0.000000001547
  38      0.000000000027
  39     -0.000219510507
  40     -0.000074946108
  41      0.000019160034
  42     -0.000000000409
  43     -0.000018149328
  44      0.000219509774
  45      0.000074941590
  46      0.000019160843
  47     -0.000000000262
  48      0.000018151093
 Ene=  -0.21692954575271E+00
 Spin= Alpha
 Occup=    1.000000
   1      0.000000000441
   2     -0.000000001277
   3      0.000000004766
   4      0.423134271529
   5     -0.000000397489
   6      0.000000001915
   7      0.364435376018
   8     -0.000000272022
   9     -0.000000005597
  10     -0.000000000605
  11      0.001457423913
  12     -0.000000143289
  13     -0.000000000142
  14     -0.000000001098
  15     -0.000000615085
  16     -0.000000540524
  17      0.013147384121
  18     -0.000000000762
  19     -0.000000008495
  20      0.000000614245
  21      0.000000542307
  22      0.013147383352
  23     -0.000000001552
  24      0.000000008997
  25      0.000000000012
  26      0.000000000479
  27     -0.000000014387
  28     -0.073207969424
  29      0.000002313821
  30      0.000000000417
  31     -0.049415218346
  32      0.000001997101
  33     -0.000000001719
  34     -0.000000000072
  35      0.026019340733
  36     -0.000000007860
  37      0.000000001988
  38     -0.000000000043
  39     -0.112334901991
  40     -0.098800489668
  41     -0.000156285734
  42      0.000000072466
  43      0.001577472402
  44      0.112334904790
  45      0.098800503899
  46     -0.000156286636
  47      0.000000072264
  48     -0.001577474941
 Ene=  -0.21685095940699E+00
 Spin= Alpha
 Occup=    1.000000
   1     -0.000000000485
   2      0.000000000854
   3     -0.000000000492
   4      0.422949093444
   5      0.000003730944
   6     -0.000000001043
   7      0.364442697918
   8      0.000002536051
   9     -0.000000000885
  10     -0.000000000383
  11      0.001457334697
  12      0.000001330923
  13      0.000000000172
  14     -0.000000000044
  15      0.000005757437
  16      0.000005066643
  17      0.013143618999
  18      0.000000006186
  19      0.000000079520
  20     -0.000005758936
  21     -0.000005068596
  22      0.013143618407
  23      0.000000006002
  24     -0.000000079543
  25     -0.000000000411
  26      0.000000000861
  27      0.000000007621
  28     -0.072979825747
  29     -0.000021631927
  30     -0.000000000557
  31     -0.049587034822
  32     -0.000018640850
  33      0.000000001998
  34      0.000000000295
  35      0.026008584633
  36      0.000000074431
  37     -0.000000001532
  38     -0.000000000017
  39     -0.112599758877
  40     -0.099081534781
  41     -0.000116657048
  42     -0.000000672630
  43      0.001552709368
  44      0.112599754747
  45      0.099081523641
  46     -0.000116656612
  47     -0.000000672401
  48     -0.001552708283
 Ene=  -0.54289953430835E-01
 Spin= Alpha
 Occup=    0.000000
   1     -0.000037120703
   2      0.000082520369
   3      0.000207079423
   4     -0.000000003316
   5      0.000000000367
   6      0.000053842566
   7     -0.000000003178
   8      0.000000003340
   9     -0.000092386223
  10      0.000009768876
  11      0.000000000028
  12     -0.000000000229
  13      0.000001315690
  14      0.000000000970
  15     -0.000071624468
  16     -0.000185178680
  17     -0.000000000098
  18      0.000009077825
  19      0.000003422552
  20     -0.000071626835
  21     -0.000185170908
  22      0.000000000270
  23     -0.000009079573
  24      0.000003422767
  25     -0.000037120128
  26      0.000082522392
  27      0.000207011204
  28      0.000000005227
  29      0.000000003385
  30     -0.000053823557
  31      0.000000013994
  32     -0.000000000788
  33      0.000092367409
  34      0.000009770756
  35      0.000000000292
  36     -0.000000000232
  37     -0.000001316428
  38      0.000000000090
  39     -0.000071622983
  40     -0.000185168272
  41      0.000009078665
  42      0.000000000323
  43     -0.000003421492
  44     -0.000071614790
  45     -0.000185137830
  46     -0.000009077949
  47      0.000000000255
  48     -0.000003425604
 Ene=  -0.54269497353707E-01
 Spin= Alpha
 Occup=    0.000000
   1     -0.000022205104
   2      0.000043290929
   3      0.000100414358
   4     -0.000000001481
   5     -0.000000001205
   6     -0.000203559864
   7     -0.000000003457
   8     -0.000000003876
   9     -0.000067295940
  10      0.000007549079
  11     -0.000000000322
  12     -0.000000000059
  13      0.000006295497
  14      0.000000000812
  15      0.000028935207
  16      0.000053264328
  17      0.000000000056
  18     -0.000008049448
  19     -0.000008926660
  20      0.000028932452
  21      0.000053254853
  22     -0.000000000668
  23      0.000008048038
  24     -0.000008926513
  25      0.000022196382
  26     -0.000043270033
  27     -0.000100363196
  28      0.000000004538
  29     -0.000000002982
  30     -0.000203567425
  31      0.000000005483
  32      0.000000000751
  33     -0.000067277364
  34     -0.000007548054
  35     -0.000000000014
  36     -0.000000000207
  37      0.000006294907
  38     -0.000000000013
  39     -0.000028950683
  40     -0.000053311780
  41      0.000008050091
  42     -0.000000000085
  43     -0.000008926945
  44     -0.000028948372
  45     -0.000053302398
  46     -0.000008050479
  47     -0.000000000686
  48     -0.000008930348
 Ene=   0.85665786713835E-01
 Spin= Alpha
 Occup=    0.000000
   1     -0.114393959399
   2      0.198571511362
   3      1.954105407232
   4     -0.000000001439
   5      0.000000057335
   6      0.054626647379
   7     -0.000000003455
   8      0.000000129518
   9      0.110498787221
  10     -0.009347372295
  11     -0.000000001387
  12     -0.000000000581
  13      0.015747543250
  14      0.000000001294
  15     -0.077657233793
  16     -1.042925270435
  17     -0.000000000265
  18     -0.006960384972
  19     -0.003478604050
  20     -0.077657215814
  21     -1.042924891214
  22     -0.000000000942
  23      0.006960386108
  24     -0.003478604411
  25      0.114393887819
  26     -0.198571351915
  27     -1.954104275851
  28     -0.000000002711
  29      0.000000003507
  30      0.054626519015
  31      0.000000012977
  32     -0.000000036938
  33      0.110498392908
  34      0.009347377533
  35      0.000000001599
  36      0.000000002034
  37      0.015747537155
  38      0.000000000521
  39      0.077657200789
  40      1.042924231148
  41      0.006960380029
  42      0.000000000249
  43     -0.003478605228
  44      0.077657205995
  45      1.042924243939
  46     -0.006960384454
  47     -0.000000004134
  48     -0.003478604822
 Ene=   0.90271503565935E-01
 Spin= Alpha
 Occup=    0.000000
   1     -0.092689012973
   2      0.215371761081
   3      1.438776071399
   4      0.000000000306
   5      0.000000054365
   6      0.166926808189
   7     -0.000000004233
   8      0.000000128750
   9      0.507819688369
  10      0.004721128556
  11      0.000000000569
  12     -0.000000000690
  13      0.000729587710
  14      0.000000001299
  15     -0.022082503807
  16     -1.082757768770
  17      0.000000000373
  18     -0.004719518117
  19      0.001039744063
  20     -0.022082487986
  21     -1.082757395791
  22      0.000000000596
  23      0.004719517907
  24      0.001039743398
  25     -0.092689101799
  26      0.215371920918
  27      1.438777585382
  28      0.000000009281
  29      0.000000003337
  30     -0.166926854631
  31      0.000000014093
  32     -0.000000035008
  33     -0.507819758463
  34      0.004721117850
  35     -0.000000001124
  36      0.000000002038
  37     -0.000729594784
  38      0.000000000224
  39     -0.022082553608
  40     -1.082758410757
  41     -0.004719520584
  42      0.000000000280
  43     -0.001039742543
  44     -0.022082553458
  45     -1.082758364216
  46      0.004719524586
  47     -0.000000003578
  48     -0.001039743888
 Ene=   0.99001978664255E-01
 Spin= Alpha
 Occup=    0.000000
   1     -0.000000001616
   2      0.000000002919
   3      0.000000026518
   4     -0.000042219663
   5     -0.000000001491
   6      0.000000003466
   7      0.000033868425
   8     -0.000000002021
   9      0.000000016287
  10      0.000000000128
  11     -0.000006635318
  12      0.000000000442
  13      0.000000000242
  14     -0.000000000161
  15     -0.000000001406
  16     -0.000000020248
  17      0.000001879074
  18     -0.000000000109
  19      0.000000000021
  20     -0.000000000489
  21     -0.000000026726
  22      0.000001879295
  23      0.000000000419
  24      0.000000000001
  25      0.000000001688
  26     -0.000000002277
  27     -0.000000021656
  28      0.000206476988
  29      0.000000000886
  30      0.000000005023
  31      0.000370882896
  32      0.000000000936
  33      0.000000010135
  34     -0.000000000029
  35      0.000002143949
  36     -0.000000000087
  37     -0.000000000307
  38     -0.000000000029
  39     -0.000056949251
  40     -0.000595221455
  41      0.000004422611
  42     -0.000000000213
  43     -0.000003142932
  44      0.000056955326
  45      0.000595259336
  46      0.000004422517
  47     -0.000000000121
  48      0.000003144830
 Ene=   0.10284351709710E+00
 Spin= Alpha
 Occup=    0.000000
   1     -0.000000001216
   2      0.000000003059
   3      0.000000017908
   4      0.000018671731
   5     -0.000000000805
   6      0.000000005431
   7     -0.000126253114
   8     -0.000000001139
   9      0.000000019352
  10     -0.000000000001
  11     -0.000005417144
  12     -0.000000000121
  13     -0.000000000045
  14     -0.000000000031
  15     -0.000000000357
  16     -0.000000020265
  17     -0.000002681816
  18     -0.000000000075
  19      0.000000000121
  20      0.000000000246
  21     -0.000000024810
  22     -0.000002682051
  23      0.000000000157
  24      0.000000000243
  25     -0.000000001357
  26      0.000000003283
  27      0.000000028080
  28      0.000107095159
  29     -0.000000000215
  30      0.000000001945
  31      0.000217229129
  32      0.000000000504
  33      0.000000000088
  34      0.000000000009