[Molden Format]
[Title]
generated by TRESC, real part2 of MOs of job O3
 
[Atoms] AU
 O   1   8   -4.5402454961    7.2177128343   -2.7178598716
 O   2   8   -2.2158043353    7.0339313734   -2.7178598716
 O   3   8   -5.4895719187    9.3477159757   -2.7178598716
[GTO]
  1 0
 s  5 1.0
     2256.4894524000        0.0059167515
      338.4991392200        0.0411156308
       76.9063833050        0.1812996088
       21.4088621130        0.4670469627
        6.6523625585        0.4440133421
 s  1 1.0
        0.8121693602        1.0000000000
 s  1 1.0
        0.2558870496        1.0000000000
 p  3 1.0
       17.7535366450        0.0431495830
        3.8671566736        0.2292558699
        1.0487786113        0.5099918107
 p  1 1.0
        0.2765100171        1.0000000000
 d  1 1.0
        1.2000000000        1.0000000000
 
  2 0
 s  5 1.0
     2256.4894524000        0.0059167515
      338.4991392200        0.0411156308
       76.9063833050        0.1812996088
       21.4088621130        0.4670469627
        6.6523625585        0.4440133421
 s  1 1.0
        0.8121693602        1.0000000000
 s  1 1.0
        0.2558870496        1.0000000000
 p  3 1.0
       17.7535366450        0.0431495830
        3.8671566736        0.2292558699
        1.0487786113        0.5099918107
 p  1 1.0
        0.2765100171        1.0000000000
 d  1 1.0
        1.2000000000        1.0000000000
 
  3 0
 s  5 1.0
     2256.4894524000        0.0059167515
      338.4991392200        0.0411156308
       76.9063833050        0.1812996088
       21.4088621130        0.4670469627
        6.6523625585        0.4440133421
 s  1 1.0
        0.8121693602        1.0000000000
 s  1 1.0
        0.2558870496        1.0000000000
 p  3 1.0
       17.7535366450        0.0431495830
        3.8671566736        0.2292558699
        1.0487786113        0.5099918107
 p  1 1.0
        0.2765100171        1.0000000000
 d  1 1.0
        1.2000000000        1.0000000000
 
[5D]
[7F]
[9G]
[MO]
 Ene=   0.94643905771329E+00
 Spin= Alpha
 Occup=    0.000000
   1      0.000000000000
   2     -0.000000000000
   3      0.000000000000
   4      0.000242357238
   5      0.000000000000
   6     -0.000000000000
   7     -0.000460283126
   8     -0.000000000000
   9      0.000000000000
  10      0.000000000000
  11     -0.006304827394
  12      0.004451828244
  13     -0.000000000000
  14     -0.000000000000
  15      0.000000000000
  16     -0.000000000000
  17      0.000000000000
  18     -0.671870931638
  19      0.000000000000
  20     -0.000000000000
  21      0.802761853429
  22     -0.000000000000
  23      0.000000000000
  24     -0.000000000000
  25      0.019263399552
  26     -0.012601211774
  27      0.000000000000
  28      0.000000000000
  29     -0.000000000000
  30      0.000000000000
  31     -0.000000000000
  32      0.671670874803
  33      0.000000000000
  34     -0.000000000000
  35     -0.802268842862
  36     -0.000000000000
  37      0.000000000000
  38      0.000000000000
  39      0.018306069298
  40     -0.013934249007
  41      0.000000000000
  42      0.000000000000
 Ene=   0.94643905771329E+00
 Spin= Alpha
 Occup=    0.000000
   1      0.000000000000
   2      0.000000000000
   3      0.000000000000
   4      0.000000000000
   5      0.000000000000
   6      0.000000000000
   7      0.000000000000
   8      0.000000000000
   9      0.000000000000
  10      0.000000000000
  11      0.000000000000
  12      0.000000000000
  13      0.000000000000
  14      0.000000000000
  15      0.000000000000
  16      0.000000000000
  17      0.000000000000
  18      0.000000000000
  19      0.000000000000
  20      0.000000000000
  21      0.000000000000
  22      0.000000000000
  23      0.000000000000
  24      0.000000000000
  25      0.000000000000
  26      0.000000000000
  27      0.000000000000
  28      0.000000000000
  29      0.000000000000
  30      0.000000000000
  31      0.000000000000
  32      0.000000000000
  33      0.000000000000
  34      0.000000000000
  35      0.000000000000
  36      0.000000000000
  37      0.000000000000
  38      0.000000000000
  39      0.000000000000
  40      0.000000000000
  41      0.000000000000
  42      0.000000000000
 Ene=   0.98530787519745E+00
 Spin= Alpha
 Occup=    0.000000
   1     -0.000000000000
   2      0.000000000000
   3     -0.000000000000
   4      0.619356133171
   5     -0.000000000000
   6     -0.000000000000
   7     -1.233386777240
   8     -0.000000000000
   9     -0.000000000000
  10      0.000000000000
  11      0.017495804508
  12      0.024765877919
  13     -0.000000000000
  14      0.000000000000
  15      0.000000000000
  16     -0.000000000000
  17      0.000000000000
  18     -0.452991998689
  19      0.000000000000
  20      0.000000000000
  21      0.845023342185
  22     -0.000000000000
  23     -0.000000000000
  24     -0.000000000000
  25      0.023341286860
  26      0.011950812664
  27      0.000000000000
  28     -0.000000000000
  29      0.000000000000
  30     -0.000000000000
  31      0.000000000000
  32     -0.453406763202
  33      0.000000000000
  34      0.000000000000
  35      0.845444202329
  36      0.000000000000
  37     -0.000000000000
  38     -0.000000000000
  39      0.003454172929
  40      0.026011459912
  41     -0.000000000000
  42     -0.000000000000
 Ene=   0.98530787519745E+00
 Spin= Alpha
 Occup=    0.000000
   1      0.000000000000
   2      0.000000000000
   3      0.000000000000
   4      0.000000000000
   5      0.000000000000
   6      0.000000000000
   7      0.000000000000
   8      0.000000000000
   9      0.000000000000
  10      0.000000000000
  11      0.000000000000
  12      0.000000000000
  13      0.000000000000
  14      0.000000000000
  15      0.000000000000
  16      0.000000000000
  17      0.000000000000
  18      0.000000000000
  19      0.000000000000
  20      0.000000000000
  21      0.000000000000
  22      0.000000000000
  23      0.000000000000
  24      0.000000000000
  25      0.000000000000
  26      0.000000000000
  27      0.000000000000
  28      0.000000000000
  29      0.000000000000
  30      0.000000000000
  31      0.000000000000
  32      0.000000000000
  33      0.000000000000
  34      0.000000000000
  35      0.000000000000
  36      0.000000000000
  37      0.000000000000
  38      0.000000000000
  39      0.000000000000
  40      0.000000000000
  41      0.000000000000
  42      0.000000000000
 Ene=   0.10001967745516E+01
 Spin= Alpha
 Occup=    0.000000
   1      0.010858922335
   2     -0.207007120419
   3     -0.154352541578
   4     -0.000000000000
   5     -0.317708295468
   6     -0.449721945833
   7      0.000000000000
   8      0.593114712481
   9      0.838930481724
  10      0.107127861022
  11     -0.000000000000
  12     -0.000000000000
  13     -0.018724328320
  14      0.052964923614
  15      0.046474363900
  16     -0.319811884084
  17      0.170291172125
  18      0.000000000000
  19      0.343270866745
  20      0.266967424178
  21     -0.000000000000
  22     -0.492022028021
  23     -0.565526891947
  24      0.044849154281
  25     -0.000000000000
  26     -0.000000000000
  27     -0.056207333034
  28     -0.022885859941
  29      0.046459868941
  30     -0.319744585533
  31      0.170469554610
  32      0.000000000000
  33      0.137548070860
  34      0.413238003096
  35     -0.000000000000
  36     -0.369381060113
  37     -0.653351999012
  38      0.044856262263
  39      0.000000000000
  40     -0.000000000000
  41      0.058142077434
  42      0.017588135156
 Ene=   0.10001967745516E+01
 Spin= Alpha
 Occup=    0.000000
   1      0.000000000000
   2      0.000000000000
   3      0.000000000000
   4      0.000000000000
   5      0.000000000000
   6      0.000000000000
   7      0.000000000000
   8      0.000000000000
   9      0.000000000000
  10      0.000000000000
  11      0.000000000000
  12      0.000000000000
  13      0.000000000000
  14      0.000000000000
  15      0.000000000000
  16      0.000000000000
  17      0.000000000000
  18      0.000000000000
  19      0.000000000000
  20      0.000000000000
  21      0.000000000000
  22      0.000000000000
  23      0.000000000000
  24      0.000000000000
  25      0.000000000000
  26      0.000000000000
  27      0.000000000000
  28      0.000000000000
  29      0.000000000000
  30      0.000000000000
  31      0.000000000000
  32      0.000000000000
  33      0.000000000000
  34      0.000000000000
  35      0.000000000000
  36      0.000000000000
  37      0.000000000000
  38      0.000000000000
  39      0.000000000000
  40      0.000000000000
  41      0.000000000000
  42      0.000000000000
 Ene=   0.10741464672573E+01
 Spin= Alpha
 Occup=    0.000000
   1      0.000000000000
   2      0.000000000000
   3      0.000000000000
   4      0.000000000000
   5      0.000000000000
   6      0.000000000000
   7      0.000000000000
   8      0.000000000000
   9      0.000000000000
  10      0.000000000000
  11      0.000000000000
  12      0.000000000000
  13      0.000000000000
  14      0.000000000000
  15      0.000000000000
  16      0.000000000000
  17      0.000000000000
  18      0.000000000000
  19      0.000000000000
  20      0.000000000000
  21      0.000000000000
  22      0.000000000000
  23      0.000000000000
  24      0.000000000000
  25      0.000000000000
  26      0.000000000000
  27      0.000000000000
  28      0.000000000000
  29      0.000000000000
  30      0.000000000000
  31      0.000000000000
  32      0.000000000000
  33      0.000000000000
  34      0.000000000000
  35      0.000000000000
  36      0.000000000000
  37      0.000000000000
  38      0.000000000000
  39      0.000000000000
  40      0.000000000000
  41      0.000000000000
  42      0.000000000000
 Ene=   0.10741464672573E+01
 Spin= Alpha
 Occup=    0.000000
   1      0.000026835634
   2     -0.000193390150
   3      0.001290746241
   4     -0.000000000000
   5     -0.451229966704
   6      0.319062823514
   7      0.000000000000
   8      1.755343111365
   9     -1.240428794269
  10     -0.000042578467
  11      0.000000000000
  12     -0.000000000000
  13     -0.078900301891
  14     -0.027984507820
  15     -0.015110168314
  16      0.083584238357
  17     -1.159990846620
  18     -0.000000000000
  19      0.063791829904
  20     -0.433495584651
  21      0.000000000000
  22      0.533619204825
  23      0.822868799984
  24      0.038715235208
  25     -0.000000000000
  26     -0.000000000000
  27     -0.052728703888
  28      0.080134774374
  29      0.015050347496
  30     -0.083205094746
  31      1.158656323819
  32      0.000000000000
  33      0.429990466551
  34      0.084298642052
  35     -0.000000000000
  36     -0.597708679603
  37     -0.776771242863
  38     -0.038720687504
  39      0.000000000000
  40      0.000000000000
  41      0.009430290843
  42     -0.095462959760
 Ene=   0.12004197040815E+01
 Spin= Alpha
 Occup=    0.000000
   1      0.000000000000
   2      0.000000000000
   3      0.000000000000
   4      0.000000000000
   5      0.000000000000
   6      0.000000000000
   7      0.000000000000
   8      0.000000000000
   9      0.000000000000
  10      0.000000000000
  11      0.000000000000
  12      0.000000000000
  13      0.000000000000
  14      0.000000000000
  15      0.000000000000
  16      0.000000000000
  17      0.000000000000
  18      0.000000000000
  19      0.000000000000
  20      0.000000000000
  21      0.000000000000
  22      0.000000000000
  23      0.000000000000
  24      0.000000000000
  25      0.000000000000
  26      0.000000000000
  27      0.000000000000
  28      0.000000000000
  29      0.000000000000
  30      0.000000000000
  31      0.000000000000
  32      0.000000000000
  33      0.000000000000
  34      0.000000000000
  35      0.000000000000
  36      0.000000000000
  37      0.000000000000
  38      0.000000000000
  39      0.000000000000
  40      0.000000000000
  41      0.000000000000
  42      0.000000000000
 Ene=   0.12004197040815E+01
 Spin= Alpha
 Occup=    0.000000
   1      0.224409052758
   2     -1.713828255787
   3      5.406734541517
   4      0.000000000000
   5     -0.144257597499
   6     -0.204551536325
   7     -0.000000000000
   8      1.063552883829
   9      1.506819939350
  10      0.066956952918
  11      0.000000000000
  12      0.000000000000
  13     -0.001747948869
  14      0.004927181886
  15     -0.093185055924
  16      0.685659619802
  17     -2.677123725516
  18     -0.000000000000
  19     -0.045708829089
  20     -0.166890959045
  21      0.000000000000
  22      1.440984014165
  23     -0.180660004475
  24      0.070057240316
  25      0.000000000000
  26      0.000000000000
  27     -0.037087437078
  28     -0.021681095092
  29     -0.093318460387
  30      0.686594759469
  31     -2.678999404668
  32     -0.000000000000
  33     -0.141841826131
  34     -0.098882991819
  35      0.000000000000
  36     -0.651747902733
  37      1.299080593190
  38      0.070009473076
  39     -0.000000000000
  40      0.000000000000
  41      0.042471444586
  42      0.006496713806
 Ene=   0.12234304220129E+01
 Spin= Alpha
 Occup=    0.000000
   1      0.000000000000
   2      0.000000000000
   3      0.000000000000
   4      0.000000000000
   5      0.000000000000
   6      0.000000000000
   7      0.000000000000
   8      0.000000000000
   9      0.000000000000
  10      0.000000000000
  11      0.000000000000
  12      0.000000000000
  13      0.000000000000
  14      0.000000000000
  15      0.000000000000
  16      0.000000000000
  17      0.000000000000
  18      0.000000000000
  19      0.000000000000
  20      0.000000000000
  21      0.000000000000
  22      0.000000000000
  23      0.000000000000
  24      0.000000000000
  25      0.000000000000
  26      0.000000000000
  27      0.000000000000
  28      0.000000000000
  29      0.000000000000
  30      0.000000000000
  31      0.000000000000
  32      0.000000000000
  33      0.000000000000
  34      0.000000000000
  35      0.000000000000
  36      0.000000000000
  37      0.000000000000
  38      0.000000000000
  39      0.000000000000
  40      0.000000000000
  41      0.000000000000
  42      0.000000000000
 Ene=   0.12234304220129E+01
 Spin= Alpha
 Occup=    0.000000
   1      0.000114698501
   2     -0.000827500220
   3      0.003211114256
   4     -0.000000000000
   5     -0.224977684596
   6      0.158795289580
   7      0.000000000000
   8      2.017120663778
   9     -1.424236001802
  10      0.000024454975
  11      0.000000000000
  12     -0.000000000000
  13      0.105221582499
  14      0.037274846959
  15     -0.157405662367
  16      1.072423242482
  17     -2.754158821958
  18     -0.000000000000
  19     -0.260046248173
  20      0.228739934228
  21      0.000000000000
  22      1.611832891319
  23     -0.251842226768
  24     -0.050226678431
  25     -0.000000000000
  26     -0.000000000000
  27      0.003870937311
  28     -0.024103094775
  29      0.157331080294
  30     -1.071866010243
  31      2.751032157184
  32      0.000000000000
  33     -0.302558454470
  34      0.168768757819
  35     -0.000000000000
  36      0.774735383790
  37     -1.433926913951
  38      0.050310503301
  39      0.000000000000
  40      0.000000000000
  41     -0.012079609409
  42      0.021196442915
 Ene=   0.19547322251422E+01
 Spin= Alpha
 Occup=    0.000000
   1      0.000000000000
   2      0.000000000000
   3      0.000000000000
   4      0.000000000000
   5      0.000000000000
   6      0.000000000000
   7      0.000000000000
   8      0.000000000000
   9      0.000000000000
  10      0.000000000000
  11      0.000000000000
  12      0.000000000000
  13      0.000000000000
  14      0.000000000000
  15      0.000000000000
  16      0.000000000000
  17      0.000000000000
  18      0.000000000000
  19      0.000000000000
  20      0.000000000000
  21      0.000000000000
  22      0.000000000000
  23      0.000000000000
  24      0.000000000000
  25      0.000000000000
  26      0.000000000000
  27      0.000000000000
  28      0.000000000000
  29      0.000000000000
  30      0.000000000000
  31      0.000000000000
  32      0.000000000000
  33      0.000000000000
  34      0.000000000000
  35      0.000000000000
  36      0.000000000000
  37      0.000000000000
  38      0.000000000000
  39      0.000000000000
  40      0.000000000000
  41      0.000000000000
  42      0.000000000000
 Ene=   0.19547322251422E+01
 Spin= Alpha
 Occup=    0.000000
   1      0.000000000000
   2     -0.000000000000
   3      0.000000000000
   4      0.000066467187
   5     -0.000000000000
   6      0.000000000000
   7     -0.000017679828
   8      0.000000000000
   9     -0.000000000000
  10      0.000000000000
  11     -0.534507530144
  12      0.377675491587
  13     -0.000000000000
  14     -0.000000000000
  15     -0.000000000000
  16      0.000000000000
  17     -0.000000000000
  18      0.054404256155
  19     -0.000000000000
  20      0.000000000000
  21      0.077423654486
  22      0.000000000000
  23      0.000000000000
  24     -0.000000000000
  25      0.432153968206
  26      0.026523290389
  27      0.000000000000
  28      0.000000000000
  29      0.000000000000
  30     -0.000000000000
  31      0.000000000000
  32     -0.054317527631
  33     -0.000000000000
  34      0.000000000000
  35     -0.077456858096
  36      0.000000000000
  37     -0.000000000000
  38      0.000000000000
  39      0.119236716107
  40     -0.416105235281
  41      0.000000000000
  42      0.000000000000
 Ene=   0.20450781199448E+01
 Spin= Alpha
 Occup=    0.000000
   1      0.000000000000
   2      0.000000000000
   3      0.000000000000
   4      0.000000000000
   5      0.000000000000
   6      0.000000000000
   7      0.000000000000
   8      0.000000000000
   9      0.000000000000
  10      0.000000000000
  11      0.000000000000
  12      0.000000000000
  13      0.000000000000
  14      0.000000000000
  15      0.000000000000
  16      0.000000000000
  17      0.000000000000
  18      0.000000000000
  19      0.000000000000
  20      0.000000000000
  21      0.000000000000
  22      0.000000000000
  23      0.000000000000
  24      0.000000000000
  25      0.000000000000
  26      0.000000000000
  27      0.000000000000
  28      0.000000000000
  29      0.000000000000
  30      0.000000000000
  31      0.000000000000
  32      0.000000000000
  33      0.000000000000
  34      0.000000000000
  35      0.000000000000
  36      0.000000000000
  37      0.000000000000
  38      0.000000000000
  39      0.000000000000
  40      0.000000000000
  41      0.000000000000
  42      0.000000000000
 Ene=   0.20450781199448E+01
 Spin= Alpha
 Occup=    0.000000
   1     -0.025987586871
   2      0.219913080267
   3     -0.512777333918
   4     -0.000000000000
   5     -0.024505171400
   6     -0.034632920805
   7      0.000000000000
   8     -0.142736114704
   9     -0.202004289233
  10     -0.303762011339
  11     -0.000000000000
  12     -0.000000000000
  13     -0.208387130456
  14      0.588577019770
  15     -0.015989016162
  16      0.051314814416
  17      0.188925428137
  18     -0.000000000000
  19     -0.093209940918
  20     -0.032320009172
  21      0.000000000000
  22     -0.076185803497
  23     -0.020986805593
  24     -0.090641686668
  25     -0.000000000000
  26     -0.000000000000
  27     -0.137323391210
  28     -0.380047815822
  29     -0.016003704824
  30      0.051384002243
  31      0.188813171579
  32      0.000000000000
  33      0.000760730443
  34     -0.098666326876
  35      0.000000000000
  36      0.005534685613
  37     -0.078788789197
  38     -0.090575115187
  39     -0.000000000000
  40     -0.000000000000
  41      0.345840618516
  42     -0.208830024439
 Ene=   0.21341780462499E+01
 Spin= Alpha
 Occup=    0.000000
   1      0.000000000000
   2      0.000000000000
   3      0.000000000000
   4      0.000000000000
   5      0.000000000000
   6      0.000000000000
   7      0.000000000000
   8      0.000000000000
   9      0.000000000000
  10      0.000000000000
  11      0.000000000000
  12      0.000000000000
  13      0.000000000000
  14      0.000000000000
  15      0.000000000000
  16      0.000000000000
  17      0.000000000000
  18      0.000000000000
  19      0.000000000000
  20      0.000000000000
  21      0.000000000000
  22      0.000000000000
  23      0.000000000000
  24      0.000000000000
  25      0.000000000000
  26      0.000000000000
  27      0.000000000000
  28      0.000000000000
  29      0.000000000000
  30      0.000000000000
  31      0.000000000000
  32      0.000000000000
  33      0.000000000000
  34      0.000000000000
  35      0.000000000000
  36      0.000000000000
  37      0.000000000000
  38      0.000000000000
  39      0.000000000000
  40      0.000000000000
  41      0.000000000000
  42      0.000000000000
 Ene=   0.21341780462499E+01
 Spin= Alpha
 Occup=    0.000000
   1     -0.000000000000
   2      0.000000000000
   3     -0.000000000000
   4      0.077763760157
   5      0.000000000000
   6      0.000000000000
   7      0.052808689445
   8     -0.000000000000
   9     -0.000000000000
  10     -0.000000000000
  11     -0.423663392390
  12     -0.599639386254
  13      0.000000000000
  14     -0.000000000000
  15      0.000000000000
  16     -0.000000000000
  17      0.000000000000
  18      0.038333527602
  19      0.000000000000
  20      0.000000000000
  21      0.020372929330
  22     -0.000000000000
  23      0.000000000000
  24     -0.000000000000
  25      0.346475980850
  26     -0.219263261414
  27      0.000000000000
  28      0.000000000000
  29      0.000000000000
  30     -0.000000000000
  31      0.000000000000
  32      0.038292321901
  33      0.000000000000
  34      0.000000000000
  35      0.020433728370
  36      0.000000000000
  37     -0.000000000000
  38     -0.000000000000
  39     -0.322243363203
  40      0.253539167444
  41     -0.000000000000
  42      0.000000000000
 Ene=   0.25032104947867E+01
 Spin= Alpha
 Occup=    0.000000
   1     -0.002014452340
   2      0.014203373814
   3     -0.029803981424
   4      0.000000000000
   5     -0.217830105827
   6      0.158846162217
   7      0.000000000000
   8      0.744646213876
   9     -0.544097585482
  10      0.009540973373
  11     -0.000000000000
  12     -0.000000000000
  13      0.418987604903
  14      0.153230782068
  15      0.036798340471
  16     -0.156966514988
  17     -0.366203224328
  18      0.000000000000
  19      0.184268212707
  20     -0.070949987959
  21     -0.000000000000
  22      0.136192698993
  23      0.145212533208
  24      0.284333137009
  25      0.000000000000
  26     -0.000000000000
  27      0.338318827222
  28     -0.398614554535
  29     -0.037867188261
  30      0.160044415747
  31      0.388999160074
  32      0.000000000000
  33      0.130372464545
  34     -0.156942067137
  35     -0.000000000000
  36     -0.082610624130
  37     -0.184093523207
  38     -0.257885737273
  39      0.000000000000
  40      0.000000000000
  41      0.013278046363
  42      0.517523264622
 Ene=   0.25032104947867E+01
 Spin= Alpha
 Occup=    0.000000
   1      0.000000000000
   2      0.000000000000
   3      0.000000000000
   4      0.000000000000
   5      0.000000000000
   6      0.000000000000
   7      0.000000000000
   8      0.000000000000
   9      0.000000000000
  10      0.000000000000
  11      0.000000000000
  12      0.000000000000
  13      0.000000000000
  14      0.000000000000
  15      0.000000000000
  16      0.000000000000
  17      0.000000000000
  18      0.000000000000
  19      0.000000000000
  20      0.000000000000
  21      0.000000000000
  22      0.000000000000
  23      0.000000000000
  24      0.000000000000
  25      0.000000000000
  26      0.000000000000
  27      0.000000000000
  28      0.000000000000
  29      0.000000000000
  30      0.000000000000
  31      0.000000000000
  32      0.000000000000
  33      0.000000000000
  34      0.000000000000
  35      0.000000000000
  36      0.000000000000
  37      0.000000000000
  38      0.000000000000
  39      0.000000000000
  40      0.000000000000
  41      0.000000000000
  42      0.000000000000
 Ene=   0.25082163660673E+01
 Spin= Alpha
 Occup=    0.000000
   1      0.000000000000
   2      0.000000000000
   3      0.000000000000
   4      0.000000000000
   5      0.000000000000
   6      0.000000000000
   7      0.000000000000
   8      0.000000000000
   9      0.000000000000
  10      0.000000000000
  11      0.000000000000
  12      0.000000000000
  13      0.000000000000
  14      0.000000000000
  15      0.000000000000
  16      0.000000000000
  17      0.000000000000
  18      0.000000000000
  19      0.000000000000
  20      0.000000000000
  21      0.000000000000
  22      0.000000000000
  23      0.000000000000
  24      0.000000000000
  25      0.000000000000
  26      0.000000000000
  27      0.000000000000
  28      0.000000000000
  29      0.000000000000
  30      0.000000000000
  31      0.000000000000
  32      0.000000000000
  33      0.000000000000
  34      0.000000000000
  35      0.000000000000
  36      0.000000000000
  37      0.000000000000
  38      0.000000000000
  39      0.000000000000
  40      0.000000000000
  41      0.000000000000
  42      0.000000000000
 Ene=   0.25082163660673E+01
 Spin= Alpha
 Occup=    0.000000
   1      0.086154548702
   2     -0.610827864370
   3      1.295250015345
   4      0.000000000000
   5     -0.104088207023
   6     -0.136666750330
   7      0.000000000000
   8      0.381683679219
   9      0.503200280715
  10     -0.402155105059
  11      0.000000000000
  12      0.000000000000
  13      0.076056499373
  14     -0.184405389479
  15      0.023515954954
  16     -0.068811725884
  17     -0.506379488606
  18      0.000000000000
  19      0.157907934244
  20      0.007937439402
  21     -0.000000000000
  22      0.217228209560
  23     -0.123412541541
  24     -0.571224383003
  25      0.000000000000
  26      0.000000000000
  27     -0.049211435893
  28      0.098367014512
  29      0.021830271395
  30     -0.061671389247
  31     -0.488626463525
  32      0.000000000000
  33     -0.039372161636
  34      0.144526403517
  35     -0.000000000000
  36     -0.192702331793
  37      0.155074898805
  38     -0.584182100788
  39      0.000000000000
  40      0.000000000000
  41     -0.023010434081
  42      0.131408326917
 Ene=   0.25536845160256E+01
 Spin= Alpha
 Occup=    0.000000
   1      0.000000000000
   2      0.000000000000
   3      0.000000000000
   4      0.000000000000
   5      0.000000000000
   6      0.000000000000
   7      0.000000000000
   8      0.000000000000
   9      0.000000000000
  10      0.000000000000
  11      0.000000000000
  12      0.000000000000
  13      0.000000000000
  14      0.000000000000
  15      0.000000000000
  16      0.000000000000
  17      0.000000000000
  18      0.000000000000
  19      0.000000000000
  20      0.000000000000
  21      0.000000000000
  22      0.000000000000
  23      0.000000000000
  24      0.000000000000
  25      0.000000000000
  26      0.000000000000
  27      0.000000000000
  28      0.000000000000
  29      0.000000000000
  30      0.000000000000
  31      0.000000000000
  32      0.000000000000
  33      0.000000000000
  34      0.000000000000
  35      0.000000000000
  36      0.000000000000
  37      0.000000000000
  38      0.000000000000
  39      0.000000000000
  40      0.000000000000
  41      0.000000000000
  42      0.000000000000
 Ene=   0.25536845160256E+01
 Spin= Alpha
 Occup=    0.000000
   1      0.000000000000
   2     -0.000000000000
   3      0.000000000000
   4     -0.000000247023
   5     -0.000000000000
   6      0.000000000000
   7      0.000185769291
   8      0.000000000000
   9      0.000000000000
  10     -0.000000000000
  11     -0.009305994311
  12      0.006367830812
  13      0.000000000000
  14     -0.000000000000
  15     -0.000000000000
  16      0.000000000000
  17     -0.000000000000
  18     -0.022160660748
  19      0.000000000000
  20     -0.000000000000
  21      0.032048916361
  22      0.000000000000
  23     -0.000000000000
  24      0.000000000000
  25     -0.044076315877
  26      0.706605586464
  27      0.000000000000
  28      0.000000000000
  29      0.000000000000
  30     -0.000000000000
  31      0.000000000000
  32      0.022251256221
  33      0.000000000000
  34      0.000000000000
  35     -0.032239095069
  36     -0.000000000000
  37     -0.000000000000
  38     -0.000000000000
  39     -0.679750376787
  40     -0.193160717263
  41      0.000000000000
  42      0.000000000000
 Ene=   0.25729669269257E+01
 Spin= Alpha
 Occup=    0.000000
   1      0.000000000000
   2      0.000000000000
   3      0.000000000000
   4      0.000000000000
   5      0.000000000000
   6      0.000000000000
   7      0.000000000000
   8      0.000000000000
   9      0.000000000000
  10      0.000000000000
  11      0.000000000000
  12      0.000000000000
  13      0.000000000000
  14      0.000000000000
  15      0.000000000000
  16      0.000000000000
  17      0.000000000000
  18      0.000000000000
  19      0.000000000000
  20      0.000000000000
  21      0.000000000000
  22      0.000000000000
  23      0.000000000000
  24      0.000000000000
  25      0.000000000000
  26      0.000000000000
  27      0.000000000000
  28      0.000000000000
  29      0.000000000000
  30      0.000000000000
  31      0.000000000000
  32      0.000000000000
  33      0.000000000000
  34      0.000000000000
  35      0.000000000000
  36      0.000000000000
  37      0.000000000000
  38      0.000000000000
  39      0.000000000000
  40      0.000000000000
  41      0.000000000000
  42      0.000000000000
 Ene=   0.25729669269257E+01
 Spin= Alpha
 Occup=    0.000000
   1     -0.000000000000
   2      0.000000000000
   3     -0.000000000000
   4      0.003169485816
   5      0.000000000000
   6      0.000000000000