[Molden Format]
[Title]
generated by TRESC, real part1 of MOs of job O3
 
[Atoms] AU
 O   1   8   -4.5402454961    7.2177128343   -2.7178598716
 O   2   8   -2.2158043353    7.0339313734   -2.7178598716
 O   3   8   -5.4895719187    9.3477159757   -2.7178598716
[GTO]
  1 0
 s  5 1.0
     2256.4894524000        0.0059167515
      338.4991392200        0.0411156308
       76.9063833050        0.1812996088
       21.4088621130        0.4670469627
        6.6523625585        0.4440133421
 s  1 1.0
        0.8121693602        1.0000000000
 s  1 1.0
        0.2558870496        1.0000000000
 p  3 1.0
       17.7535366450        0.0431495830
        3.8671566736        0.2292558699
        1.0487786113        0.5099918107
 p  1 1.0
        0.2765100171        1.0000000000
 d  1 1.0
        1.2000000000        1.0000000000
 
  2 0
 s  5 1.0
     2256.4894524000        0.0059167515
      338.4991392200        0.0411156308
       76.9063833050        0.1812996088
       21.4088621130        0.4670469627
        6.6523625585        0.4440133421
 s  1 1.0
        0.8121693602        1.0000000000
 s  1 1.0
        0.2558870496        1.0000000000
 p  3 1.0
       17.7535366450        0.0431495830
        3.8671566736        0.2292558699
        1.0487786113        0.5099918107
 p  1 1.0
        0.2765100171        1.0000000000
 d  1 1.0
        1.2000000000        1.0000000000
 
  3 0
 s  5 1.0
     2256.4894524000        0.0059167515
      338.4991392200        0.0411156308
       76.9063833050        0.1812996088
       21.4088621130        0.4670469627
        6.6523625585        0.4440133421
 s  1 1.0
        0.8121693602        1.0000000000
 s  1 1.0
        0.2558870496        1.0000000000
 p  3 1.0
       17.7535366450        0.0431495830
        3.8671566736        0.2292558699
        1.0487786113        0.5099918107
 p  1 1.0
        0.2765100171        1.0000000000
 d  1 1.0
        1.2000000000        1.0000000000
 
[5D]
[7F]
[9G]
[MO]
 Ene=  -0.19506542352895E+02
 Spin= Alpha
 Occup=    1.000000
   1     -0.988726451390
   2     -0.040471565190
   3      0.026775368583
   4     -0.000000000000
   5     -0.001534580812
   6     -0.002170055348
   7      0.000000000000
   8      0.003801364835
   9      0.005378447278
  10      0.000003636682
  11     -0.000000000000
  12      0.000000000000
  13     -0.000110737005
  14      0.000311068740
  15      0.000157087514
  16      0.001348860979
  17     -0.007930527873
  18      0.000000000000
  19     -0.000760848639
  20      0.000011859448
  21      0.000000000000
  22      0.003573972229
  23     -0.001211195479
  24     -0.000838945914
  25     -0.000000000000
  26      0.000000000000
  27      0.001309245625
  28      0.000140310145
  29      0.000157364802
  30      0.001348223973
  31     -0.007929023325
  32      0.000000000000
  33      0.000264776411
  34     -0.000712284183
  35     -0.000000000000
  36     -0.002334623358
  37      0.002964709151
  38     -0.000838497111
  39      0.000000000000
  40     -0.000000000000
  41     -0.001105228923
  42     -0.000714360300
 Ene=  -0.19506542352895E+02
 Spin= Alpha
 Occup=   -0.000000
   1      0.000000000000
   2      0.000000000000
   3      0.000000000000
   4      0.000000000000
   5      0.000000000000
   6      0.000000000000
   7      0.000000000000
   8      0.000000000000
   9      0.000000000000
  10      0.000000000000
  11      0.000000000000
  12      0.000000000000
  13      0.000000000000
  14      0.000000000000
  15      0.000000000000
  16      0.000000000000
  17      0.000000000000
  18      0.000000000000
  19      0.000000000000
  20      0.000000000000
  21      0.000000000000
  22      0.000000000000
  23      0.000000000000
  24      0.000000000000
  25      0.000000000000
  26      0.000000000000
  27      0.000000000000
  28      0.000000000000
  29      0.000000000000
  30      0.000000000000
  31      0.000000000000
  32      0.000000000000
  33      0.000000000000
  34      0.000000000000
  35      0.000000000000
  36      0.000000000000
  37      0.000000000000
  38      0.000000000000
  39      0.000000000000
  40      0.000000000000
  41      0.000000000000
  42      0.000000000000
 Ene=  -0.19315877075009E+02
 Spin= Alpha
 Occup=    1.000000
   1      0.000147453332
   2     -0.000182300175
   3      0.000812484941
   4     -0.000000000000
   5     -0.000938737735
   6      0.000566798824
   7      0.000000000000
   8      0.003658311679
   9     -0.002500505236
  10      0.000190271492
  11      0.000000000000
  12      0.000000000000
  13     -0.001743970209
  14     -0.000467616000
  15      0.788716183032
  16      0.031013889936
  17     -0.015879367306
  18      0.000000000000
  19     -0.002044968567
  20      0.000424935176
  21     -0.000000000000
  22      0.004369626008
  23     -0.000718996379
  24      0.000034535847
  25     -0.000000000000
  26     -0.000000000000
  27      0.000164186268
  28     -0.000052012000
  29     -0.596498909950
  30     -0.023818009927
  31      0.012884049741
  32     -0.000000000000
  33     -0.000943213193
  34      0.001393539328
  35      0.000000000000
  36      0.002034603063
  37     -0.003344931005
  38     -0.000099309999
  39     -0.000000000000
  40      0.000000000000
  41      0.000064430020
  42      0.000093649249
 Ene=  -0.19315877075009E+02
 Spin= Alpha
 Occup=    0.000000
   1      0.000000000000
   2      0.000000000000
   3      0.000000000000
   4      0.000000000000
   5      0.000000000000
   6      0.000000000000
   7      0.000000000000
   8      0.000000000000
   9      0.000000000000
  10      0.000000000000
  11      0.000000000000
  12      0.000000000000
  13      0.000000000000
  14      0.000000000000
  15      0.000000000000
  16      0.000000000000
  17      0.000000000000
  18      0.000000000000
  19      0.000000000000
  20      0.000000000000
  21      0.000000000000
  22      0.000000000000
  23      0.000000000000
  24      0.000000000000
  25      0.000000000000
  26      0.000000000000
  27      0.000000000000
  28      0.000000000000
  29      0.000000000000
  30      0.000000000000
  31      0.000000000000
  32      0.000000000000
  33      0.000000000000
  34      0.000000000000
  35      0.000000000000
  36      0.000000000000
  37      0.000000000000
  38      0.000000000000
  39      0.000000000000
  40      0.000000000000
  41      0.000000000000
  42      0.000000000000
 Ene=  -0.19315730452205E+02
 Spin= Alpha
 Occup=    0.000000
   1      0.000000000000
   2      0.000000000000
   3      0.000000000000
   4      0.000000000000
   5      0.000000000000
   6      0.000000000000
   7      0.000000000000
   8      0.000000000000
   9      0.000000000000
  10      0.000000000000
  11      0.000000000000
  12      0.000000000000
  13      0.000000000000
  14      0.000000000000
  15      0.000000000000
  16      0.000000000000
  17      0.000000000000
  18      0.000000000000
  19      0.000000000000
  20      0.000000000000
  21      0.000000000000
  22      0.000000000000
  23      0.000000000000
  24      0.000000000000
  25      0.000000000000
  26      0.000000000000
  27      0.000000000000
  28      0.000000000000
  29      0.000000000000
  30      0.000000000000
  31      0.000000000000
  32      0.000000000000
  33      0.000000000000
  34      0.000000000000
  35      0.000000000000
  36      0.000000000000
  37      0.000000000000
  38      0.000000000000
  39      0.000000000000
  40      0.000000000000
  41      0.000000000000
  42      0.000000000000
 Ene=  -0.19315730452205E+02
 Spin= Alpha
 Occup=    1.000000
   1      0.001062326137
   2     -0.001310668177
   3      0.005847774284
   4     -0.000000000000
   5     -0.000203283285
   6     -0.000549419101
   7      0.000000000000
   8     -0.000213935451
   9      0.000763277155
  10      0.001369093810
  11      0.000000000000
  12     -0.000000000000
  13     -0.000104703547
  14      0.001042308129
  15      0.596673897209
  16      0.022128939462
  17     -0.008795848817
  18     -0.000000000000
  19     -0.001244141015
  20     -0.000055522136
  21     -0.000000000000
  22      0.001366166818
  23      0.000401558759
  24     -0.000242032366
  25     -0.000000000000
  26     -0.000000000000
  27      0.000178492192
  28     -0.000064915502
  29      0.788848788083
  30      0.029735494967
  31     -0.012786566589
  32      0.000000000000
  33      0.000643848458
  34     -0.001631700396
  35     -0.000000000000
  36     -0.000656207900
  37      0.002424314005
  38     -0.000223129173
  39     -0.000000000000
  40     -0.000000000000
  41     -0.000119553077
  42     -0.000195391398
 Ene=  -0.14218301495288E+01
 Spin= Alpha
 Occup=    1.000000
   1      0.237952043423
   2     -0.489911094385
   3     -0.233951457252
   4      0.000000000000
   5     -0.079981482596
   6     -0.112991607938
   7      0.000000000000
   8     -0.032385731394
   9     -0.045785568870
  10      0.014739709042
  11     -0.000000000000
  12     -0.000000000000
  13     -0.002771049950
  14      0.007794396160
  15      0.119825197171
  16     -0.240404410333
  17     -0.076199449796
  18      0.000000000000
  19      0.127566974615
  20     -0.019782671669
  21      0.000000000000
  22      0.021402104719
  23      0.000633558901
  24      0.007829583878
  25      0.000000000000
  26     -0.000000000000
  27     -0.015420445421
  28      0.004521828057
  29      0.119724431733
  30     -0.240199596837
  31     -0.076134210322
  32      0.000000000000
  33     -0.061190673630
  34      0.113544958711
  35      0.000000000000
  36     -0.006540079486
  37      0.020368945701
  38      0.007824818805
  39     -0.000000000000
  40     -0.000000000000
  41      0.009130015377
  42      0.013210993873
 Ene=  -0.14218301495288E+01
 Spin= Alpha
 Occup=   -0.000000
   1      0.000000000000
   2      0.000000000000
   3      0.000000000000
   4      0.000000000000
   5      0.000000000000
   6      0.000000000000
   7      0.000000000000
   8      0.000000000000
   9      0.000000000000
  10      0.000000000000
  11      0.000000000000
  12      0.000000000000
  13      0.000000000000
  14      0.000000000000
  15      0.000000000000
  16      0.000000000000
  17      0.000000000000
  18      0.000000000000
  19      0.000000000000
  20      0.000000000000
  21      0.000000000000
  22      0.000000000000
  23      0.000000000000
  24      0.000000000000
  25      0.000000000000
  26      0.000000000000
  27      0.000000000000
  28      0.000000000000
  29      0.000000000000
  30      0.000000000000
  31      0.000000000000
  32      0.000000000000
  33      0.000000000000
  34      0.000000000000
  35      0.000000000000
  36      0.000000000000
  37      0.000000000000
  38      0.000000000000
  39      0.000000000000
  40      0.000000000000
  41      0.000000000000
  42      0.000000000000
 Ene=  -0.11394732726545E+01
 Spin= Alpha
 Occup=    1.000000
   1      0.000060083295
   2     -0.000122247057
   3     -0.000104978867
   4     -0.000000000000
   5      0.280849249072
   6     -0.198508981013
   7     -0.000000000000
   8      0.082408610385
   9     -0.058268629178
  10      0.000002854198
  11      0.000000000000
  12     -0.000000000000
  13      0.028892389584
  14      0.010231532345
  15     -0.184099073409
  16      0.376294014796
  17      0.202922893259
  18     -0.000000000000
  19     -0.133113549339
  20     -0.006574474620
  21     -0.000000000000
  22     -0.043483638255
  23      0.003025172203
  24     -0.006659769503
  25     -0.000000000000
  26     -0.000000000000
  27      0.016395590850
  28      0.000211091450
  29      0.184168725358
  30     -0.376430064863
  31     -0.202986416870
  32      0.000000000000
  33     -0.038277773968
  34      0.127709662360
  35      0.000000000000
  36     -0.017373863906
  37      0.039987813250
  38      0.006664518945
  39     -0.000000000000
  40      0.000000000000
  41      0.012877859525
  42      0.010163693344
 Ene=  -0.11394732726545E+01
 Spin= Alpha
 Occup=    0.000000
   1      0.000000000000
   2      0.000000000000
   3      0.000000000000
   4      0.000000000000
   5      0.000000000000
   6      0.000000000000
   7      0.000000000000
   8      0.000000000000
   9      0.000000000000
  10      0.000000000000
  11      0.000000000000
  12      0.000000000000
  13      0.000000000000
  14      0.000000000000
  15      0.000000000000
  16      0.000000000000
  17      0.000000000000
  18      0.000000000000
  19      0.000000000000
  20      0.000000000000
  21      0.000000000000
  22      0.000000000000
  23      0.000000000000
  24      0.000000000000
  25      0.000000000000
  26      0.000000000000
  27      0.000000000000
  28      0.000000000000
  29      0.000000000000
  30      0.000000000000
  31      0.000000000000
  32      0.000000000000
  33      0.000000000000
  34      0.000000000000
  35      0.000000000000
  36      0.000000000000
  37      0.000000000000
  38      0.000000000000
  39      0.000000000000
  40      0.000000000000
  41      0.000000000000
  42      0.000000000000
 Ene=  -0.77792907224061E+00
 Spin= Alpha
 Occup=   -0.000000
   1      0.000000000000
   2      0.000000000000
   3      0.000000000000
   4      0.000000000000
   5      0.000000000000
   6      0.000000000000
   7      0.000000000000
   8      0.000000000000
   9      0.000000000000
  10      0.000000000000
  11      0.000000000000
  12      0.000000000000
  13      0.000000000000
  14      0.000000000000
  15      0.000000000000
  16      0.000000000000
  17      0.000000000000
  18      0.000000000000
  19      0.000000000000
  20      0.000000000000
  21      0.000000000000
  22      0.000000000000
  23      0.000000000000
  24      0.000000000000
  25      0.000000000000
  26      0.000000000000
  27      0.000000000000
  28      0.000000000000
  29      0.000000000000
  30      0.000000000000
  31      0.000000000000
  32      0.000000000000
  33      0.000000000000
  34      0.000000000000
  35      0.000000000000
  36      0.000000000000
  37      0.000000000000
  38      0.000000000000
  39      0.000000000000
  40      0.000000000000
  41      0.000000000000
  42      0.000000000000
 Ene=  -0.77792907224061E+00
 Spin= Alpha
 Occup=    1.000000
   1     -0.187588156110
   2      0.415161306520
   3      0.345786858456
   4     -0.000000000000
   5     -0.117162502307
   6     -0.165753623423
   7     -0.000000000000
   8     -0.051895778705
   9     -0.073430487421
  10      0.007445153156
  11     -0.000000000000
  12     -0.000000000000
  13      0.003108376405
  14     -0.008787713158
  15      0.166617994737
  16     -0.343741305705
  17     -0.306730562412
  18      0.000000000000
  19     -0.109403628779
  20     -0.048774630213
  21      0.000000000000
  22     -0.034792921548
  23     -0.027361095340
  24     -0.003706284846
  25      0.000000000000
  26     -0.000000000000
  27      0.005285569393
  28      0.006675904049
  29      0.166608617796
  30     -0.343718167559
  31     -0.306694366602
  32      0.000000000000
  33     -0.009448211339
  34     -0.119365619649
  35      0.000000000000
  36     -0.014173075696
  37     -0.041918141141
  38     -0.003704388609
  39      0.000000000000
  40     -0.000000000000
  41     -0.008305509838
  42      0.001862026883
 Ene=  -0.63965145813260E+00
 Spin= Alpha
 Occup=    1.000000
   1      0.000000000000
   2      0.000000000000
   3     -0.000000000000
   4     -0.547423306264
   5     -0.000000000000
   6     -0.000000000000
   7     -0.315971958281
   8     -0.000000000000
   9     -0.000000000000
  10     -0.000000000000
  11     -0.016692648254
  12     -0.023597908263
  13      0.000000000000
  14     -0.000000000000
  15     -0.000000000000
  16      0.000000000000
  17      0.000000000000
  18     -0.245475946430
  19      0.000000000000
  20     -0.000000000000
  21     -0.131401623017
  22     -0.000000000000
  23     -0.000000000000
  24     -0.000000000000
  25      0.025462880537
  26     -0.002989592748
  27     -0.000000000000
  28      0.000000000000
  29     -0.000000000000
  30      0.000000000000
  31      0.000000000000
  32     -0.245321718941
  33     -0.000000000000
  34      0.000000000000
  35     -0.131321385940
  36     -0.000000000000
  37     -0.000000000000
  38     -0.000000000000
  39     -0.011312303327
  40      0.022990462843
  41     -0.000000000000
  42      0.000000000000
 Ene=  -0.63965145813260E+00
 Spin= Alpha
 Occup=    0.000000
   1      0.000000000000
   2      0.000000000000
   3      0.000000000000
   4      0.000000000000
   5      0.000000000000
   6      0.000000000000
   7      0.000000000000
   8      0.000000000000
   9      0.000000000000
  10      0.000000000000
  11      0.000000000000
  12      0.000000000000
  13      0.000000000000
  14      0.000000000000
  15      0.000000000000
  16      0.000000000000
  17      0.000000000000
  18      0.000000000000
  19      0.000000000000
  20      0.000000000000
  21      0.000000000000
  22      0.000000000000
  23      0.000000000000
  24      0.000000000000
  25      0.000000000000
  26      0.000000000000
  27      0.000000000000
  28      0.000000000000
  29      0.000000000000
  30      0.000000000000
  31      0.000000000000
  32      0.000000000000
  33      0.000000000000
  34      0.000000000000
  35      0.000000000000
  36      0.000000000000
  37      0.000000000000
  38      0.000000000000
  39      0.000000000000
  40      0.000000000000
  41      0.000000000000
  42      0.000000000000
 Ene=  -0.62268022935436E+00
 Spin= Alpha
 Occup=    0.000000
   1      0.000000000000
   2      0.000000000000
   3      0.000000000000
   4      0.000000000000
   5      0.000000000000
   6      0.000000000000
   7      0.000000000000
   8      0.000000000000
   9      0.000000000000
  10      0.000000000000
  11      0.000000000000
  12      0.000000000000
  13      0.000000000000
  14      0.000000000000
  15      0.000000000000
  16      0.000000000000
  17      0.000000000000
  18      0.000000000000
  19      0.000000000000
  20      0.000000000000
  21      0.000000000000
  22      0.000000000000
  23      0.000000000000
  24      0.000000000000
  25      0.000000000000
  26      0.000000000000
  27      0.000000000000
  28      0.000000000000
  29      0.000000000000
  30      0.000000000000
  31      0.000000000000
  32      0.000000000000
  33      0.000000000000
  34      0.000000000000
  35      0.000000000000
  36      0.000000000000
  37      0.000000000000
  38      0.000000000000
  39      0.000000000000
  40      0.000000000000
  41      0.000000000000
  42      0.000000000000
 Ene=  -0.62268022935436E+00
 Spin= Alpha
 Occup=    1.000000
   1      0.019141613654
   2     -0.031973870981
   3     -0.012116777178
   4     -0.000000000000
   5      0.282627697763
   6      0.399924642129
   7     -0.000000000000
   8      0.167729913070
   9      0.237357196535
  10     -0.012028288962
  11      0.000000000000
  12      0.000000000000
  13     -0.009269241416
  14      0.026195824100
  15      0.076389678613
  16     -0.149801691493
  17     -0.224047316275
  18     -0.000000000000
  19     -0.170373647083
  20      0.218056455066
  21     -0.000000000000
  22     -0.052821381474
  23      0.111769184910
  24     -0.007027987201
  25      0.000000000000
  26      0.000000000000
  27      0.005639303750
  28     -0.020044566658
  29      0.076386409626
  30     -0.149800891901
  31     -0.224010023172
  32     -0.000000000000
  33      0.262275163823
  34     -0.087792164184
  35     -0.000000000000
  36      0.122920581312
  37     -0.012480027223
  38     -0.007026121666
  39      0.000000000000
  40      0.000000000000
  41      0.008227038431
  42     -0.019116520066
 Ene=  -0.60857827512093E+00
 Spin= Alpha
 Occup=    0.000000
   1      0.000000000000
   2      0.000000000000
   3      0.000000000000
   4      0.000000000000
   5      0.000000000000
   6      0.000000000000
   7      0.000000000000
   8      0.000000000000
   9      0.000000000000
  10      0.000000000000
  11      0.000000000000
  12      0.000000000000
  13      0.000000000000
  14      0.000000000000
  15      0.000000000000
  16      0.000000000000
  17      0.000000000000
  18      0.000000000000
  19      0.000000000000
  20      0.000000000000
  21      0.000000000000
  22      0.000000000000
  23      0.000000000000
  24      0.000000000000
  25      0.000000000000
  26      0.000000000000
  27      0.000000000000
  28      0.000000000000
  29      0.000000000000
  30      0.000000000000
  31      0.000000000000
  32      0.000000000000
  33      0.000000000000
  34      0.000000000000
  35      0.000000000000
  36      0.000000000000
  37      0.000000000000
  38      0.000000000000
  39      0.000000000000
  40      0.000000000000
  41      0.000000000000
  42      0.000000000000
 Ene=  -0.60857827512093E+00
 Spin= Alpha
 Occup=    1.000000
   1     -0.000018996919
   2      0.000031773689
   3      0.000071685066
   4      0.000000000000
   5     -0.320595327695
   6      0.226566751317
   7      0.000000000000
   8     -0.159097421232
   9      0.112448947282
  10      0.000001255340
  11     -0.000000000000
  12      0.000000000000
  13     -0.014411575786
  14     -0.005097570405
  15     -0.119562296012
  16      0.239938913985
  17      0.303646656392
  18     -0.000000000000
  19      0.319019171280
  20      0.048397785183
  21     -0.000000000000
  22      0.138371307932
  23      0.021627978316
  24      0.010982463957
  25      0.000000000000
  26      0.000000000000
  27     -0.016263902686
  28     -0.004246482043
  29      0.119581256646
  30     -0.239985004890
  31     -0.303659761440
  32      0.000000000000
  33      0.060916661672
  34     -0.316789856959
  35      0.000000000000
  36      0.025827080549
  37     -0.137614291971
  38     -0.010981314535
  39      0.000000000000
  40     -0.000000000000
  41     -0.015305627383
  42     -0.006938417206
 Ene=  -0.37781809509525E+00
 Spin= Alpha
 Occup=   -0.000000
   1      0.000000000000
   2      0.000000000000
   3      0.000000000000
   4      0.000000000000
   5      0.000000000000
   6      0.000000000000
   7      0.000000000000
   8      0.000000000000
   9      0.000000000000
  10      0.000000000000
  11      0.000000000000
  12      0.000000000000
  13      0.000000000000
  14      0.000000000000
  15      0.000000000000
  16      0.000000000000
  17      0.000000000000
  18      0.000000000000
  19      0.000000000000
  20      0.000000000000
  21      0.000000000000
  22      0.000000000000
  23      0.000000000000
  24      0.000000000000
  25      0.000000000000
  26      0.000000000000
  27      0.000000000000
  28      0.000000000000
  29      0.000000000000
  30      0.000000000000
  31      0.000000000000
  32      0.000000000000
  33      0.000000000000
  34      0.000000000000
  35      0.000000000000
  36      0.000000000000
  37      0.000000000000
  38      0.000000000000
  39      0.000000000000
  40      0.000000000000
  41      0.000000000000
  42      0.000000000000
 Ene=  -0.37781809509525E+00
 Spin= Alpha
 Occup=    1.000000
   1      0.000000000000
   2     -0.000000000000
   3      0.000000000000
   4     -0.000073935093
   5      0.000000000000
   6     -0.000000000000
   7     -0.000071744143
   8     -0.000000000000
   9      0.000000000000
  10      0.000000000000
  11      0.031812817348
  12     -0.022485154515
  13     -0.000000000000
  14      0.000000000000
  15     -0.000000000000
  16     -0.000000000000
  17      0.000000000000
  18      0.477125368914
  19      0.000000000000
  20      0.000000000000
  21      0.343162965282
  22     -0.000000000000
  23      0.000000000000
  24      0.000000000000
  25     -0.019823699673
  26      0.001075973601
  27      0.000000000000
  28     -0.000000000000
  29      0.000000000000
  30      0.000000000000
  31     -0.000000000000
  32     -0.477214744788
  33     -0.000000000000
  34     -0.000000000000
  35     -0.343224582454
  36     -0.000000000000
  37      0.000000000000
  38     -0.000000000000
  39     -0.007634529857
  40      0.018330987647
  41      0.000000000000
  42      0.000000000000
 Ene=  -0.36310349518092E+00
 Spin= Alpha
 Occup=    0.000000
   1      0.000000000000
   2      0.000000000000
   3      0.000000000000
   4      0.000000000000
   5      0.000000000000
   6      0.000000000000
   7      0.000000000000
   8      0.000000000000
   9      0.000000000000
  10      0.000000000000
  11      0.000000000000
  12      0.000000000000
  13      0.000000000000
  14      0.000000000000
  15      0.000000000000
  16      0.000000000000
  17      0.000000000000
  18      0.000000000000
  19      0.000000000000
  20      0.000000000000
  21      0.000000000000
  22      0.000000000000
  23      0.000000000000
  24      0.000000000000
  25      0.000000000000
  26      0.000000000000
  27      0.000000000000
  28      0.000000000000
  29      0.000000000000
  30      0.000000000000
  31      0.000000000000
  32      0.000000000000
  33      0.000000000000
  34      0.000000000000
  35      0.000000000000
  36      0.000000000000
  37      0.000000000000
  38      0.000000000000
  39      0.000000000000
  40      0.000000000000
  41      0.000000000000
  42      0.000000000000
 Ene=  -0.36310349518092E+00
 Spin= Alpha
 Occup=    1.000000
   1     -0.000026629977
   2      0.000055904250
   3      0.000075637167
   4      0.000000000000
   5      0.033304281887
   6     -0.023717046410
   7      0.000000000000
   8     -0.041202431329
   9      0.028978506021
  10      0.000007498253
  11     -0.000000000000
  12      0.000000000000
  13      0.027900445524
  14      0.009892411461
  15     -0.005210174185
  16      0.020456685121
  17      0.021987486436
  18     -0.000000000000
  19     -0.078870394392
  20      0.490643493115
  21     -0.000000000000
  22     -0.065093451744
  23      0.338276806831
  24     -0.002430077417
  25     -0.000000000000
  26      0.000000000000
  27      0.003380026890
  28     -0.017130033928
  29      0.005207093688
  30     -0.020459340526
  31     -0.021928251822
  32      0.000000000000
  33     -0.488739010202
  34     -0.089193378198
  35      0.000000000000
  36     -0.340520652605
  37     -0.051410638641
  38      0.002434974181
  39     -0.000000000000
  40     -0.000000000000
  41     -0.008145809312
  42      0.015442504121
 Ene=  -0.34761402741034E+00
 Spin= Alpha
 Occup=    0.000000
   1      0.000000000000
   2      0.000000000000
   3      0.000000000000
   4      0.000000000000
   5      0.000000000000
   6      0.000000000000
   7      0.000000000000
   8      0.000000000000
   9      0.000000000000
  10      0.000000000000
  11      0.000000000000
  12      0.000000000000
  13      0.000000000000
  14      0.000000000000
  15      0.000000000000
  16      0.000000000000
  17      0.000000000000
  18      0.000000000000
  19      0.000000000000
  20      0.000000000000
  21      0.000000000000
  22      0.000000000000
  23      0.000000000000
  24      0.000000000000
  25      0.000000000000
  26      0.000000000000
  27      0.000000000000
  28      0.000000000000
  29      0.000000000000
  30      0.000000000000
  31      0.000000000000
  32      0.000000000000
  33      0.000000000000
  34      0.000000000000
  35      0.000000000000
  36      0.000000000000
  37      0.000000000000
  38      0.000000000000
  39      0.000000000000
  40      0.000000000000
  41      0.000000000000
  42      0.000000000000
 Ene=  -0.34761402741034E+00
 Spin= Alpha
 Occup=    1.000000
   1     -0.060525838389
   2      0.114200917670
   3      0.251679311042
   4     -0.000000000000
   5     -0.177956410205
   6     -0.251818343408
   7     -0.000000000000
   8     -0.107539980280
   9     -0.152245691668
  10      0.014366459369
  11     -0.000000000000
  12     -0.000000000000
  13     -0.010004704135
  14      0.028235572752
  15      0.011391840371
  16     -0.044016848670
  17      0.020364105789
  18      0.000000000000
  19      0.214875797739
  20      0.391585785456
  21      0.000000000000
  22      0.131274511577
  23      0.300574544029
  24      0.003134826613
  25      0.000000000000
  26      0.000000000000
  27     -0.009768503699
  28     -0.007128181242
  29      0.011379022958
  30     -0.043980489567
  31      0.020411621344
  32      0.000000000000
  33      0.297646636199
  34      0.333407692816
  35      0.000000000000
  36      0.239682588295
  37      0.224164889298
  38      0.003135902737
  39      0.000000000000
  40      0.000000000000
  41      0.012085214979
  42      0.000602532416
 Ene=  -0.17153290444381E+00
 Spin= Alpha
 Occup=    0.000000
   1      0.000000000000
   2      0.000000000000
   3     -0.000000000000
   4     -0.484856936057
   5      0.000000000000
   6      0.000000000000
   7     -0.371566729989
   8     -0.000000000000
   9     -0.000000000000
  10     -0.000000000000
  11      0.002770696161
  12      0.003917785112
  13      0.000000000000
  14     -0.000000000000
  15     -0.000000000000
  16     -0.000000000000
  17      0.000000000000
  18      0.412808279318
  19      0.000000000000
  20     -0.000000000000
  21      0.349596169343
  22     -0.000000000000
  23     -0.000000000000
  24      0.000000000000
  25      0.003487176220
  26      0.001481500545
  27     -0.000000000000
  28     -0.000000000000
  29     -0.000000000000
  30     -0.000000000000
  31      0.000000000000
  32      0.412771561556
  33     -0.000000000000
  34      0.000000000000
  35      0.349551350376
  36      0.000000000000
  37     -0.000000000000
  38      0.000000000000
  39      0.000232798604
  40      0.003780812048
  41      0.000000000000
  42     -0.000000000000
 Ene=  -0.17153290444381E+00
 Spin= Alpha
 Occup=    0.000000
   1      0.000000000000
   2      0.000000000000
   3      0.000000000000
   4      0.000000000000
   5      0.000000000000
   6      0.000000000000