[Molden Format]
[Title]
generated by TRESC, real part1 of MOs of job CO3
 
[Atoms] AU
 C   1   6    0.8683455824    5.9117408867    0.3946624736
 O   2   8    3.0759666602    6.0084693058    0.4150267281
 O   3   8   -1.2068755866    6.9101599458    1.3549785802
 O   4   8   -1.0934266921    4.7345528503   -0.6041387501
[GTO]
  1 0
 s  5 1.0
     1238.4016938000        0.0059599745
      186.2900499200        0.0422621111
       42.2511763500        0.1866575214
       11.6765579300        0.4675815865
        3.5930506500        0.4422897287
 s  1 1.0
        0.4024514700        1.0000000000
 s  1 1.0
        0.1309018300        1.0000000000
 p  3 1.0
        9.4680970600        0.0570294585
        2.0103545100        0.3130471495
        0.5477100500        0.7605135301
 p  1 1.0
        0.1526861400        1.0000000000
 d  1 1.0
        0.8000000000        1.0000000000
 
  2 0
 s  5 1.0
     2266.1767785000        0.0060711540
      340.8701019100        0.0417308970
       77.3631351700        0.1850777598
       21.4796449400        0.4668774046
        6.6589433100        0.4435718061
 s  1 1.0
        0.8097597600        1.0000000000
 s  1 1.0
        0.2553077200        1.0000000000
 p  3 1.0
       17.7215043200        0.0628680198
        3.8635505400        0.3334973703
        1.0480920900        0.7412421661
 p  1 1.0
        0.2764154400        1.0000000000
 d  1 1.0
        1.2000000000        1.0000000000
 
  3 0
 s  5 1.0
     2266.1767785000        0.0060711540
      340.8701019100        0.0417308970
       77.3631351700        0.1850777598
       21.4796449400        0.4668774046
        6.6589433100        0.4435718061
 s  1 1.0
        0.8097597600        1.0000000000
 s  1 1.0
        0.2553077200        1.0000000000
 p  3 1.0
       17.7215043200        0.0628680198
        3.8635505400        0.3334973703
        1.0480920900        0.7412421661
 p  1 1.0
        0.2764154400        1.0000000000
 d  1 1.0
        1.2000000000        1.0000000000
 
  4 0
 s  5 1.0
     2266.1767785000        0.0060711540
      340.8701019100        0.0417308970
       77.3631351700        0.1850777598
       21.4796449400        0.4668774046
        6.6589433100        0.4435718061
 s  1 1.0
        0.8097597600        1.0000000000
 s  1 1.0
        0.2553077200        1.0000000000
 p  3 1.0
       17.7215043200        0.0628680198
        3.8635505400        0.3334973703
        1.0480920900        0.7412421661
 p  1 1.0
        0.2764154400        1.0000000000
 d  1 1.0
        1.2000000000        1.0000000000
 
[5D]
[7F]
[9G]
[MO]
 Ene=  -0.19843462515816E+02
 Spin= Alpha
 Occup=    0.999922
   1      0.000327165794
   2      0.001203777455
   3      0.015043485002
   4     -0.000812610532
   5      0.000071588457
   6      0.000088944555
   7     -0.016297613495
   8      0.000502477147
   9      0.000945020262
  10      0.000678365950
  11      0.000261877164
  12      0.000027389751
  13     -0.001195850226
  14      0.000212004916
  15     -0.000433821960
  16     -0.000663043255
  17      0.006550737428
  18     -0.000352926067
  19      0.000016263778
  20      0.000025343620
  21     -0.000536072137
  22     -0.000508043917
  23     -0.000441237793
  24     -0.000114360445
  25      0.000121848494
  26      0.000094225776
  27      0.000169256876
  28      0.000150420985
  29      0.833002016359
  30      0.036702956974
  31     -0.028530563216
  32      0.001690925104
  33     -0.001618310885
  34     -0.001505911781
  35     -0.005670796863
  36      0.003138453853
  37      0.002992885573
  38      0.000037453967
  39      0.000045938803
  40      0.000000199936
  41     -0.000067925102
  42      0.000046578056
  43      0.531284374287
  44      0.023728764029
  45     -0.019092464869
  46      0.000905667588
  47      0.001335672030
  48      0.001173229907
  49     -0.003992959984
  50     -0.001822600083
  51     -0.001517472008
  52      0.000085135110
  53     -0.000139753722
  54      0.000200840619
  55     -0.000180733669
  56     -0.000160306728
 Ene=  -0.19843462515816E+02
 Spin= Alpha
 Occup=    0.000078
   1      0.000001154517
   2      0.000004180574
   3      0.000052060883
   4     -0.000002997254
   5      0.000003945667
   6      0.000003663022
   7     -0.000058695647
   8      0.000043390653
   9      0.000040722497
  10      0.000002497430
  11      0.000010642662
  12      0.000000603073
  13     -0.000005179656
  14      0.000011418103
  15     -0.000002708002
  16     -0.000002366463
  17      0.000022797468
  18     -0.000001277703
  19      0.000001151683
  20      0.000001048686
  21     -0.000001012537
  22     -0.000018340991
  23     -0.000016440695
  24     -0.000000323904
  25      0.000004584058
  26      0.000000556252
  27      0.000000142336
  28      0.000005153915
  29      0.008060073013
  30      0.000349592976
  31     -0.000260449712
  32      0.000016850828
  33     -0.000011922225
  34     -0.000011360665
  35     -0.000045318918
  36      0.000039625086
  37      0.000037077094
  38     -0.000000704669
  39     -0.000001042025
  40     -0.000003664142
  41      0.000002116295
  42     -0.000001274588
  43     -0.003337332796
  44     -0.000140374333
  45      0.000095501672
  46     -0.000007188682
  47     -0.000002638129
  48     -0.000002229137
  49      0.000008765850
  50      0.000024579606
  51      0.000021881875
  52      0.000001092680
  53     -0.000002071343
  54      0.000004229887
  55     -0.000002670206
  56     -0.000002399521
 Ene=  -0.19843276088469E+02
 Spin= Alpha
 Occup=    0.999930
   1     -0.000071711217
   2     -0.000266480919
   3     -0.003336585623
   4      0.000154813416
   5      0.000495598454
   6      0.000440814690
   7      0.003304151728
   8      0.005652949477
   9      0.004981498544
  10     -0.000127253736
  11      0.001280305508
  12      0.000065043017
  13      0.000119541437
  14      0.001436401064
  15      0.000096607049
  16      0.000146294027
  17     -0.001443998775
  18      0.000069478432
  19      0.000147275175
  20      0.000130275278
  21      0.000236683924
  22     -0.002182220377
  23     -0.001968623112
  24      0.000034277552
  25      0.000550554004
  26      0.000010369320
  27     -0.000098511480
  28      0.000606958667
  29      0.530823433820
  30      0.022619720382
  31     -0.016022290889
  32      0.001162683272
  33     -0.000513458972
  34     -0.000496762816
  35     -0.002305813995
  36      0.003276718589
  37      0.003015300607
  38     -0.000130247664
  39     -0.000172604906
  40     -0.000509768016
  41      0.000345989727
  42     -0.000188020595
  43     -0.833525103904
  44     -0.036022166117
  45      0.026575520770
  46     -0.001637968440
  47     -0.001298867156
  48     -0.001117951023
  49      0.004017777147
  50      0.004672248823
  51      0.004078298147
  52      0.000096548207
  53     -0.000183833080
  54      0.000445380418
  55     -0.000249815584
  56     -0.000204882743
 Ene=  -0.19843276088469E+02
 Spin= Alpha
 Occup=    0.000070
   1     -0.000002136161
   2     -0.000007630184
   3     -0.000094709119
   4      0.000005227480
   5     -0.000002595245
   6     -0.000002486165
   7      0.000104137316
   8     -0.000027334453
   9     -0.000027734446
  10     -0.000004289783
  11     -0.000007252376
  12     -0.000000434536
  13      0.000008095138
  14     -0.000007568992
  15      0.000008184955
  16      0.000004476968
  17     -0.000041563137
  18      0.000002225183
  19     -0.000000735925
  20     -0.000000734201
  21      0.000002918793
  22      0.000012827105
  23      0.000011450335
  24      0.000000652317
  25     -0.000003190891
  26     -0.000000745006
  27     -0.000000796985
  28     -0.000003630068
  29     -0.008249640538
  30     -0.000360213746
  31      0.000273496556
  32     -0.000016992397
  33      0.000013847538
  34      0.000013048659
  35      0.000050630317
  36     -0.000036432391
  37     -0.000034327265
  38      0.000000226668
  39      0.000000355341
  40      0.000002093821
  41     -0.000000964137
  42      0.000000512026
  43     -0.000348737417
  44     -0.000020590688
  45      0.000026686788
  46      0.000000470567
  47     -0.000004204927
  48     -0.000003914507
  49      0.000011953653
  50     -0.000006396805
  51     -0.000006043788
  52     -0.000001094307
  53      0.000001810700
  54     -0.000003367473
  55      0.000002381175
  56      0.000001902621
 Ene=  -0.19754561687011E+02
 Spin= Alpha
 Occup=    0.000000
   1      0.000000034903
   2      0.000000192181
   3      0.000000760075
   4     -0.000000078962
   5     -0.000000015377
   6     -0.000000084460
   7      0.000001674447
   8      0.000000046416
   9      0.000000084736
  10      0.000000134724
  11      0.000000106490
  12     -0.000000006635
  13     -0.000000231135
  14     -0.000000024333
  15      0.000086840427
  16      0.000003964617
  17     -0.000003333213
  18     -0.000000333492
  19     -0.000000017277
  20      0.000000275960
  21      0.000000698920
  22      0.000000035648
  23     -0.000000145202
  24     -0.000000029414
  25     -0.000000025443
  26      0.000000004088
  27      0.000000054741
  28      0.000000070443
  29     -0.000003924419
  30     -0.000000197386
  31      0.000000634789
  32      0.000000023729
  33      0.000000001386
  34      0.000000015843
  35      0.000000004372
  36     -0.000000152798
  37     -0.000000161303
  38      0.000000011602
  39     -0.000000048015
  40      0.000000011772
  41     -0.000000034035
  42     -0.000000029358
  43      0.000003993037
  44      0.000000104296
  45      0.000000372117
  46      0.000000015154
  47     -0.000000002068
  48      0.000000012936
  49     -0.000000043147
  50      0.000000069265
  51      0.000000040468
  52      0.000000020098
  53     -0.000000000659
  54      0.000000001242
  55     -0.000000021272
  56      0.000000022113
 Ene=  -0.19754561687011E+02
 Spin= Alpha
 Occup=    1.000000
   1     -0.000275881364
   2     -0.001518786652
   3     -0.005997633042
   4      0.000631558736
   5      0.000028019706
   6      0.000006181446
   7     -0.013205284184
   8     -0.000577657218
   9     -0.000120835273
  10     -0.001060696512
  11      0.000029418840
  12      0.000089245432
  13      0.001811920153
  14      0.000158079491
  15     -0.684992759997
  16     -0.031273365733
  17      0.026295728391
  18      0.002610894194
  19      0.000114685285
  20      0.000024164061
  21     -0.005505084418
  22     -0.000241624886
  23     -0.000051098427
  24      0.000266403627
  25     -0.000007001519
  26     -0.000031681884
  27     -0.000453135042
  28     -0.000039512800
  29     -0.000270799007
  30      0.000366982494
  31     -0.003975403088
  32     -0.000159528721
  33     -0.000018960609
  34     -0.000012266740
  35      0.000127266078
  36      0.000891427655
  37      0.000797826846
  38     -0.000119584414
  39      0.000186770165
  40     -0.000049365348
  41      0.000204565555
  42      0.000219847071
  43     -0.000257988584
  44      0.000366281667
  45     -0.003965413073
  46     -0.000160367581
  47      0.000005511042
  48      0.000009757654
  49      0.000221404188
  50     -0.000875415843
  51     -0.000793264394
  52     -0.000125401195
  53     -0.000172766410
  54     -0.000068315148
  55      0.000243091074
  56     -0.000178687085
 Ene=  -0.10842674724512E+02
 Spin= Alpha
 Occup=    0.000000
   1     -0.000013138941
   2     -0.000000669710
   3      0.000000013649
   4      0.000000013328
   5     -0.000000055292
   6     -0.000000107017
   7     -0.000000035105
   8     -0.000000047836
   9     -0.000000000667
  10      0.000000039806
  11      0.000000283520
  12     -0.000000006767
  13     -0.000000065477
  14     -0.000000002516
  15      0.000000003987
  16     -0.000000004020
  17      0.000000176413
  18     -0.000000021494
  19      0.000000007246
  20     -0.000000069848
  21     -0.000000122336
  22      0.000000017121
  23      0.000000043785
  24     -0.000000010504
  25     -0.000000240868
  26     -0.000000009056
  27      0.000000017285
  28      0.000000015411
  29     -0.000000080330
  30      0.000000019402
  31      0.000000200004
  32      0.000000074287
  33     -0.000000023213
  34      0.000000032981
  35      0.000000093309
  36     -0.000000089091
  37     -0.000000100763
  38      0.000000039468
  39     -0.000000118141
  40      0.000000047476
  41     -0.000000036062
  42     -0.000000017983
  43      0.000000078991
  44     -0.000000029032
  45     -0.000000063483
  46     -0.000000049320
  47     -0.000000012294
  48      0.000000041532
  49      0.000000049435
  50     -0.000000037007
  51     -0.000000047649
  52     -0.000000050607
  53     -0.000000071618
  54     -0.000000036602
  55      0.000000060160
  56      0.000000023145
 Ene=  -0.10842674724512E+02
 Spin= Alpha
 Occup=    1.000000
   1     -0.634386909029
   2     -0.032325352713
   3      0.000658039244
   4      0.000471503780
   5      0.000019893696
   6      0.000002982017
   7     -0.001813960927
   8     -0.000080226896
   9     -0.000017767888
  10      0.001818359571
  11     -0.000015028869
  12     -0.000909133935
  13     -0.002946567392
  14     -0.000248728760
  15      0.000190026791
  16     -0.000206039540
  17      0.008543239323
  18     -0.000996285719
  19     -0.000043805007
  20     -0.000009427764
  21     -0.005867167479
  22     -0.000257024753
  23     -0.000053946134
  24     -0.000426260230
  25      0.000011638287
  26      0.000050740154
  27      0.000725022035
  28      0.000063114300
  29     -0.000034299660
  30     -0.000227746577
  31      0.003284247313
  32      0.000599989988
  33     -0.000314731011
  34     -0.000301202194
  35      0.003339331805
  36     -0.001211664417
  37     -0.001190205250
  38     -0.000338563344
  39     -0.000823695998
  40      0.000400638345
  41      0.000554893481
  42     -0.000865032257
  43     -0.000034123616
  44     -0.000230330054
  45      0.003274831785
  46      0.000562347150
  47      0.000364739758
  48      0.000310724009
  49      0.003191816082
  50      0.001496649118
  51      0.001248799206
  52     -0.000312480377
  53      0.000803873857
  54      0.000489025726
  55      0.000380879632
  56      0.000939208235
 Ene=  -0.14189736104401E+01
 Spin= Alpha
 Occup=    1.000000
   1      0.135807535349
   2     -0.266707057751
   3      0.015188302761
   4      0.131204527355
   5      0.005683593029
   6      0.001148119528
   7     -0.025250326380
   8     -0.001107798584
   9     -0.000235211196
  10      0.016243168838
  11     -0.000104283878
  12     -0.008748325287
  13     -0.026188397680
  14     -0.002208716042
  15      0.036361451420
  16     -0.070429615183
  17     -0.019579206519
  18      0.028664967320
  19      0.001242101935
  20      0.000260114446
  21      0.003483192476
  22      0.000155149875
  23      0.000032884393
  24      0.000844650469
  25     -0.000044707202
  26      0.000410950605
  27     -0.001544676474
  28     -0.000138916728
  29      0.163776665916
  30     -0.322772204455
  31     -0.186179859816
  32     -0.069551234265
  33      0.075495469590
  34      0.069952750165
  35     -0.023373034061
  36      0.026456211243
  37      0.024491161215
  38      0.000298273597
  39      0.005660301371
  40     -0.012655388914
  41      0.001815110660
  42      0.005951689080
  43      0.163566183630
  44     -0.322357932235
  45     -0.186000477017
  46     -0.061258431447
  47     -0.081155772802
  48     -0.071113188622
  49     -0.020484605761
  50     -0.028395898889
  51     -0.024903761550
  52      0.000127421141
  53     -0.004479431496
  54     -0.013206177234
  55      0.002911731150
  56     -0.005287821699
 Ene=  -0.14189736104401E+01
 Spin= Alpha
 Occup=    0.000000
   1      0.000063076770
   2     -0.000123884690
   3      0.000007050029
   4      0.000060975704
   5      0.000006420583
   6     -0.000024069333
   7     -0.000011982452
   8      0.000002247615
   9      0.000014319582
  10      0.000007654214
  11      0.000001958037
  12     -0.000003946458
  13     -0.000012339991
  14      0.000001199402
  15      0.000016892789
  16     -0.000032720561
  17     -0.000009085861
  18      0.000013547990
  19      0.000000684057
  20     -0.000025377617
  21      0.000001682947
  22     -0.000000928502
  23     -0.000003268397
  24      0.000000400586
  25      0.000000802231
  26      0.000000230495
  27     -0.000000764681
  28      0.000000390182
  29      0.000073029722
  30     -0.000145342340
  31     -0.000073976234
  32      0.000025758179
  33      0.000029651821
  34      0.000087711420
  35     -0.000014339801
  36      0.000002028821
  37      0.000000596737
  38     -0.000002129355
  39      0.000002344259
  40     -0.000005358370
  41      0.000001832202
  42      0.000001035268
  43      0.000079012619
  44     -0.000154303290
  45     -0.000098890490
  46     -0.000086956933
  47     -0.000042885187
  48      0.000015032127
  49     -0.000004938557
  50     -0.000023275910
  51     -0.000022069269
  52      0.000002203093
  53     -0.000002512894
  54     -0.000006735511
  55      0.000000622540
  56     -0.000004231356
 Ene=  -0.12553076241445E+01
 Spin= Alpha
 Occup=    0.000000
   1     -0.000065646976
   2      0.000132379538
   3      0.000012960391
   4      0.000153681112
   5      0.000003142349
   6     -0.000057074973
   7      0.000012461589
   8      0.000002455721
   9      0.000031773078
  10     -0.000006497626
  11      0.000002873592
  12     -0.000001348483
  13      0.000011395283
  14      0.000004065217
  15     -0.000142940731
  16      0.000282700000
  17      0.000134095945
  18     -0.000098138224
  19     -0.000001377074
  20      0.000144140974
  21     -0.000013409245
  22     -0.000000386262
  23     -0.000007746424
  24     -0.000004932040
  25     -0.000005030577
  26     -0.000000627771
  27      0.000008464130
  28      0.000001157919
  29      0.000028867369
  30     -0.000060738412
  31     -0.000027317805
  32      0.000014281527
  33      0.000015544876
  34      0.000010226621
  35      0.000000799099
  36      0.000000298607
  37     -0.000007275935
  38     -0.000001327959
  39     -0.000000920615
  40     -0.000001685150
  41      0.000002680096
  42     -0.000000681227
  43      0.000018777583
  44     -0.000036823886
  45     -0.000021915677
  46     -0.000012688152
  47     -0.000010747427
  48     -0.000016180076
  49      0.000002469828
  50     -0.000007744161
  51     -0.000014620159
  52     -0.000000302099
  53     -0.000001334741
  54     -0.000003557197
  55      0.000001270120
  56     -0.000001231748
 Ene=  -0.12553076241445E+01
 Spin= Alpha
 Occup=    1.000000
   1      0.114627971335
   2     -0.231179274286
   3     -0.022654136744
   4     -0.267144160189
   5     -0.011708622111
   6     -0.002440701211
   7     -0.022401123356
   8     -0.000970686668
   9     -0.000202020745
  10      0.011485315341
  11     -0.000491742480
  12      0.002609218123
  13     -0.020374550400
  14     -0.001817615965
  15      0.249593244457
  16     -0.493631686032
  17     -0.234135436372
  18      0.168802423174
  19      0.007439856336
  20      0.001557111395
  21      0.023508470432
  22      0.001027145299
  23      0.000213666072
  24      0.008462919153
  25     -0.000302673992
  26      0.000705098392
  27     -0.014755838467
  28     -0.001303332420
  29     -0.041641227662
  30      0.085267075736
  31      0.043045579453
  32     -0.000246779722
  33     -0.023491839544
  34     -0.021109532917
  35     -0.002000586745
  36     -0.007211938797
  37     -0.006421512003
  38      0.001344537939
  39     -0.000626684323
  40      0.004437413393
  41     -0.003231751867
  42     -0.000749240463
  43     -0.041571925328
  44      0.085125834716
  45      0.042991784489
  46     -0.002747687276
  47      0.023336229209
  48      0.021060880007
  49     -0.002743760351
  50      0.006998936081
  51      0.006375377525
  52      0.001357216756
  53      0.000125482095
  54      0.004475076911
  55     -0.003313403751
  56      0.000084341981
 Ene=  -0.10876611231596E+01
 Spin= Alpha
 Occup=    0.999991
   1      0.000059370565
   2     -0.000121146470
   3     -0.000025340171
   4      0.007899795419
   5     -0.149536994492
   6     -0.134659778457
   7      0.000530296080
   8     -0.009284675583
   9     -0.008362194506
  10      0.000396615648
  11      0.024576823349
  12      0.001335339881
  13     -0.002633573824
  14      0.027244218796
  15      0.000004932607
  16     -0.000006220799
  17     -0.000035452832
  18      0.001202247281
  19     -0.023140857424
  20     -0.020837912402
  21      0.000481376899
  22     -0.009106861546
  23     -0.008200833762
  24      0.000066508807
  25      0.004156888965
  26      0.000224753638
  27     -0.000443007796
  28      0.004608186101
  29      0.209778931011
  30     -0.433963452046
  31     -0.304111167596
  32     -0.085340673869
  33     -0.018254236695
  34     -0.013843306394
  35     -0.037613683698
  36     -0.002997767872
  37     -0.001556383242
  38      0.003769761396
  39      0.003093442258
  40      0.001907097267
  41     -0.007132574308
  42      0.003035802197
  43     -0.210036434125
  44      0.434477306660
  45      0.304589285368
  46      0.086690179460
  47     -0.010581181713
  48     -0.012117877115
  49      0.037754350675
  50      0.000410775873
  51     -0.000773237822
  52     -0.003655908141
  53      0.003490740288
  54     -0.001521163940
  55      0.006407796944
  56      0.004262694379
 Ene=  -0.10876611231596E+01
 Spin= Alpha
 Occup=    0.000009
   1     -0.000005308720
   2      0.000001578269
   3     -0.000000095866
   4     -0.000006487128
   5     -0.000432246767
   6     -0.000392606800
   7     -0.000004953005
   8     -0.000027255902
   9     -0.000024174482
  10      0.000002531562
  11      0.000071130963
  12      0.000005779588
  13     -0.000007603149
  14      0.000078811170
  15     -0.000006706001
  16      0.000011916860
  17      0.000026575630
  18     -0.000019967241
  19     -0.000066864287
  20     -0.000061879707
  21     -0.000012077124
  22     -0.000026820143
  23     -0.000024033703
  24     -0.000002305186
  25      0.000012171192
  26      0.000000311411
  27      0.000002486963
  28      0.000013637939
  29      0.000597380252
  30     -0.001236885010
  31     -0.000870703697
  32     -0.000258107326
  33     -0.000054835437
  34      0.000051671549
  35     -0.000110535508
  36     -0.000008196402
  37      0.000003316535
  38      0.000010485546
  39      0.000011887597
  40      0.000003575619
  41     -0.000020331352
  42      0.000009889752
  43     -0.000618369956
  44      0.001278053960
  45      0.000892044779
  46      0.000241737328
  47     -0.000027660129
  48     -0.000128988208
  49      0.000107921484
  50      0.000001012728
  51     -0.000010573618
  52     -0.000011259638
  53      0.000007361580
  54     -0.000006638144
  55      0.000019034484
  56      0.000011389670
 Ene=  -0.73137171481257E+00
 Spin= Alpha
 Occup=    0.000021
   1     -0.000626843494
   2      0.001551190218
   3      0.000170813415
   4     -0.000764482131
   5      0.000344773201
   6     -0.000222328558
   7     -0.000019562561
   8      0.000122444380
   9     -0.000129918850
  10     -0.000026147713
  11      0.000046920077
  12      0.000040153003
  13      0.000040567169
  14     -0.000039416935
  15      0.000280332013
  16     -0.000584415463
  17     -0.000566900488
  18     -0.000362060361
  19      0.000142579074
  20      0.000054875964
  21     -0.000174582085
  22      0.000061597398
  23      0.000013043579
  24     -0.000007782273
  25      0.000008472612
  26     -0.000000419979
  27      0.000015256908
  28     -0.000016267979
  29      0.000399481659
  30     -0.000817681848
  31     -0.000937447529
  32      0.001210513261
  33      0.000131254455
  34     -0.001136402570
  35      0.000647396377
  36      0.000164219304
  37     -0.000404457342
  38      0.000013171212
  39     -0.000073874898
  40      0.000000634246
  41      0.000058758148
  42     -0.000037492827
  43      0.000411996063
  44     -0.000867592443
  45     -0.000860061156
  46      0.001260849485
  47      0.000796179985
  48     -0.000510039809
  49      0.000612876575
  50      0.000417296709
  51     -0.000165951822
  52     -0.000052648319
  53      0.000029734269
  54      0.000002140659
  55      0.000005603979
  56      0.000071846915
 Ene=  -0.73137171481257E+00
 Spin= Alpha
 Occup=    0.999979
   1     -0.152709521259
   2      0.377893005389
   3      0.041643043856
   4     -0.182660792574
   5     -0.007999246580
   6     -0.001566494556
   7     -0.003740921691
   8     -0.000204693031
   9     -0.000032757790
  10     -0.006441827730
  11     -0.000233971884
  12      0.009385358558
  13      0.009135223238
  14      0.000725633408
  15      0.068309164558
  16     -0.142402482212
  17     -0.138151587980
  18     -0.086410081163
  19     -0.003768145584
  20     -0.000765816809
  21     -0.041768011931
  22     -0.001825374288
  23     -0.000367895570
  24     -0.001929863781
  25      0.000065392997
  26     -0.000150620091
  27      0.003362487723
  28      0.000298808166
  29      0.098926626234
  30     -0.205452732105
  31     -0.219178719853
  32      0.308113330589
  33     -0.069223128911
  34     -0.071309051876
  35      0.157428040517
  36     -0.024766949203
  37     -0.026923853590
  38     -0.004961872841
  39     -0.012338175322
  40     -0.000135084136
  41      0.009423313716
  42     -0.013118145270
  43      0.098720897844
  44     -0.205018251389
  45     -0.218648511636
  46      0.299069534565
  47      0.095301058879
  48      0.076854638061
  49      0.153947046882
  50      0.038235407507
  51      0.029814200332
  52     -0.004538292659
  53      0.012583405212
  54      0.001211165784
  55      0.006748150653
  56      0.014507900665
 Ene=  -0.65856405811464E+00
 Spin= Alpha
 Occup=    0.000161
   1     -0.000452519989
   2      0.001081164013
   3      0.000062650753
   4      0.000168409415
   5     -0.002316118420
   6      0.002595026668
   7     -0.000058293914
   8     -0.000884152430
   9      0.000987499696
  10     -0.000024625415
  11     -0.000151075143
  12     -0.000003173611
  13      0.000027045817
  14      0.000141622212
  15      0.000371172428
  16     -0.000784781813
  17     -0.000758655815
  18     -0.001140132090
  19     -0.001401393685
  20      0.001532286879
  21     -0.000528533710
  22     -0.000722171353
  23      0.000786462683
  24     -0.000033935435
  25     -0.000140772005
  26     -0.000004602991
  27      0.000043757193
  28      0.000130460503
  29      0.000185250518
  30     -0.000398074420
  31     -0.000432048990
  32      0.000185320807
  33     -0.002598509598
  34      0.002447421055
  35      0.000231959495
  36     -0.001511872395
  37      0.001454675519
  38     -0.000169332375
  39      0.000096291349
  40     -0.000009211328
  41     -0.000083894701
  42     -0.000119665737
  43      0.000177919221
  44     -0.000382343750
  45     -0.000413649150
  46      0.000162168508
  47     -0.002116416177
  48      0.002869834436
  49      0.000224428739
  50     -0.001269895532
  51      0.001666895968
  52      0.000166685686
  53      0.000117927912
  54      0.000033181862
  55      0.000106676435
  56     -0.000070982980
 Ene=  -0.65856405811464E+00
 Spin= Alpha
 Occup=    0.999839
   1      0.000383108158
   2     -0.000924475505
   3      0.000009930448
   4      0.005008670255
   5     -0.146580479799
   6      0.163072478738
   7      0.001903613702
   8     -0.055743186051
   9      0.062013903245
  10     -0.000108157778
  11     -0.009627826531
  12     -0.000328905658
  13     -0.000727749925
  14      0.008631911130
  15     -0.000259360534
  16      0.000551225749
  17      0.000527666345
  18      0.003802810993
  19     -0.086300385585
  20      0.096053578129
  21      0.001907679017
  22     -0.044430645203
  23      0.049450163208
  24     -0.000121303038
  25     -0.008886666836
  26     -0.000315295410
  27     -0.000654067473
  28      0.007970601976
  29     -0.000222100827
  30      0.000479329278
  31      0.000485443865
  32      0.005083967121
  33     -0.149363401402
  34      0.167140105291
  35      0.002865919154
  36     -0.088024761137
  37      0.098449891868
  38     -0.010477530559
  39      0.006935938963
  40     -0.001076685359
  41     -0.005608810662
  42     -0.006562832111
  43     -0.000222403506
  44      0.000479385644
  45      0.000487005518
  46      0.005121048699
  47     -0.150131590554
  48      0.166024537022
  49      0.002886527940
  50     -0.088434726925
  51      0.097837289078
  52      0.010679903601
  53      0.006549578599
  54      0.001505715054
  55      0.006565717595
  56     -0.005534301362
 Ene=  -0.62479341345951E+00
 Spin= Alpha
 Occup=    0.015097
   1      0.008992845373
   2     -0.020973783615
   3     -0.009969134614
   4     -0.034162435499
   5      0.003667917202
   6      0.003781868726
   7      0.006642034463
   8      0.001711130299
   9      0.001201445014
  10     -0.000911401527
  11      0.000050938990
  12     -0.000802995029
  13      0.001754942333
  14      0.000017139793
  15     -0.015943939414
  16      0.033276487669
  17      0.036509220484
  18      0.050584696768
  19      0.005845743190
  20      0.004365204816
  21      0.025063440417
  22      0.003159281738
  23      0.002259747725
  24      0.001434436581
  25     -0.000290429912
  26     -0.000064400538
  27     -0.002445887566
  28     -0.000486326310
  29      0.005979388257
  30     -0.012913355971
  31     -0.010227132627
  32      0.007173137861
  33     -0.021281191683
  34     -0.020271356363
  35      0.003625322423
  36     -0.012925876248
  37     -0.012320876479
  38      0.000412662251
  39     -0.000597336781
  40      0.001606023895
  41     -0.000949562752