[Molden Format]
[Title]
generated by TRESC, imaginary part1 of MOs of job CO3
 
[Atoms] AU
 C   1   6    0.8683455824    5.9117408867    0.3946624736
 O   2   8    3.0759666602    6.0084693058    0.4150267281
 O   3   8   -1.2068755866    6.9101599458    1.3549785802
 O   4   8   -1.0934266921    4.7345528503   -0.6041387501
[GTO]
  1 0
 s  5 1.0
     1238.4016938000        0.0059599745
      186.2900499200        0.0422621111
       42.2511763500        0.1866575214
       11.6765579300        0.4675815865
        3.5930506500        0.4422897287
 s  1 1.0
        0.4024514700        1.0000000000
 s  1 1.0
        0.1309018300        1.0000000000
 p  3 1.0
        9.4680970600        0.0570294585
        2.0103545100        0.3130471495
        0.5477100500        0.7605135301
 p  1 1.0
        0.1526861400        1.0000000000
 d  1 1.0
        0.8000000000        1.0000000000
 
  2 0
 s  5 1.0
     2266.1767785000        0.0060711540
      340.8701019100        0.0417308970
       77.3631351700        0.1850777598
       21.4796449400        0.4668774046
        6.6589433100        0.4435718061
 s  1 1.0
        0.8097597600        1.0000000000
 s  1 1.0
        0.2553077200        1.0000000000
 p  3 1.0
       17.7215043200        0.0628680198
        3.8635505400        0.3334973703
        1.0480920900        0.7412421661
 p  1 1.0
        0.2764154400        1.0000000000
 d  1 1.0
        1.2000000000        1.0000000000
 
  3 0
 s  5 1.0
     2266.1767785000        0.0060711540
      340.8701019100        0.0417308970
       77.3631351700        0.1850777598
       21.4796449400        0.4668774046
        6.6589433100        0.4435718061
 s  1 1.0
        0.8097597600        1.0000000000
 s  1 1.0
        0.2553077200        1.0000000000
 p  3 1.0
       17.7215043200        0.0628680198
        3.8635505400        0.3334973703
        1.0480920900        0.7412421661
 p  1 1.0
        0.2764154400        1.0000000000
 d  1 1.0
        1.2000000000        1.0000000000
 
  4 0
 s  5 1.0
     2266.1767785000        0.0060711540
      340.8701019100        0.0417308970
       77.3631351700        0.1850777598
       21.4796449400        0.4668774046
        6.6589433100        0.4435718061
 s  1 1.0
        0.8097597600        1.0000000000
 s  1 1.0
        0.2553077200        1.0000000000
 p  3 1.0
       17.7215043200        0.0628680198
        3.8635505400        0.3334973703
        1.0480920900        0.7412421661
 p  1 1.0
        0.2764154400        1.0000000000
 d  1 1.0
        1.2000000000        1.0000000000
 
[5D]
[7F]
[9G]
[MO]
 Ene=  -0.19843462515816E+02
 Spin= Alpha
 Occup=    0.999922
   1     -0.000006025286
   2     -0.000022062471
   3     -0.000275024559
   4      0.000015278909
   5     -0.000009587008
   6     -0.000009053337
   7      0.000303058294
   8     -0.000102132673
   9     -0.000101033740
  10     -0.000012766215
  11     -0.000026315950
  12     -0.000001631429
  13      0.000024166657
  14     -0.000027924441
  15      0.000010612500
  16      0.000012283001
  17     -0.000120026488
  18      0.000006571808
  19     -0.000002709433
  20     -0.000002661417
  21      0.000007915118
  22      0.000046308424
  23      0.000041407507
  24      0.000001947657
  25     -0.000011558347
  26     -0.000002235266
  27     -0.000002093805
  28     -0.000013060051
  29     -0.026785812010
  30     -0.001167857950
  31      0.000882570367
  32     -0.000055575219
  33      0.000043646550
  34      0.000040937570
  35      0.000161108806
  36     -0.000121653418
  37     -0.000114135629
  38      0.000001244561
  39      0.000002099511
  40      0.000008195607
  41     -0.000003959404
  42      0.000002127810
  43      0.001841426396
  44      0.000062895648
  45     -0.000011625750
  46      0.000006552193
  47     -0.000008264997
  48     -0.000007564480
  49      0.000022509122
  50     -0.000035672960
  51     -0.000032666675
  52     -0.000003360221
  53      0.000006245041
  54     -0.000011557987
  55      0.000007870463
  56      0.000006906639
 Ene=  -0.19843462515816E+02
 Spin= Alpha
 Occup=    0.000078
   1     -0.000000023969
   2     -0.000000087623
   3     -0.000001076653
   4      0.000000063542
   5     -0.000000104535
   6     -0.000000090935
   7      0.000001225655
   8     -0.000001116529
   9     -0.000001057393
  10     -0.000000101433
  11     -0.000000268643
  12     -0.000000021116
  13      0.000000084331
  14     -0.000000300683
  15      0.000000072683
  16      0.000000049852
  17     -0.000000471835
  18      0.000000026461
  19     -0.000000027853
  20     -0.000000029044
  21      0.000000016387
  22      0.000000467153
  23      0.000000424987
  24      0.000000034401
  25     -0.000000117113
  26     -0.000000009297
  27      0.000000015780
  28     -0.000000131369
  29     -0.000195023308
  30     -0.000008447776
  31      0.000006271533
  32     -0.000000413792
  33      0.000000395963
  34      0.000000136944
  35      0.000001080840
  36     -0.000001051248
  37     -0.000000829463
  38     -0.000000248742
  39     -0.000000018401
  40      0.000000062371
  41     -0.000000213672
  42      0.000000067095
  43      0.000097354409
  44      0.000004121470
  45     -0.000002859421
  46      0.000000206624
  47      0.000000031541
  48      0.000000152027
  49     -0.000000306442
  50     -0.000000633402
  51     -0.000000650030
  52     -0.000000220046
  53      0.000000099733
  54     -0.000000128325
  55     -0.000000041734
  56      0.000000009214
 Ene=  -0.19843276088469E+02
 Spin= Alpha
 Occup=    0.999930
   1     -0.000003924112
   2     -0.000014090952
   3     -0.000173329684
   4      0.000009944249
   5     -0.000011452104
   6     -0.000010601781
   7      0.000194678520
   8     -0.000125646117
   9     -0.000118828260
  10     -0.000008254318
  11     -0.000030868492
  12     -0.000001727455
  13      0.000016558400
  14     -0.000033287228
  15      0.000017166487
  16      0.000008329618
  17     -0.000076217062
  18      0.000004153307
  19     -0.000003334101
  20     -0.000003117514
  21      0.000003794858
  22      0.000053577955
  23      0.000048055511
  24      0.000001134288
  25     -0.000013409086
  26     -0.000001771194
  27     -0.000000600343
  28     -0.000015044732
  29     -0.024485189686
  30     -0.001062712915
  31      0.000793754589
  32     -0.000051322867
  33      0.000036781854
  34      0.000034532782
  35      0.000139387335
  36     -0.000118829017
  37     -0.000111025233
  38      0.000002159399
  39      0.000002995683
  40      0.000010537824
  41     -0.000006002703
  42      0.000003126773
  43      0.008748793998
  44      0.000365792104
  45     -0.000244167697
  46      0.000019629852
  47      0.000005490779
  48      0.000004399592
  49     -0.000019208014
  50     -0.000067632370
  51     -0.000060259663
  52     -0.000003348454
  53      0.000005816163
  54     -0.000012587978
  55      0.000008265338
  56      0.000006855786
 Ene=  -0.19843276088469E+02
 Spin= Alpha
 Occup=    0.000070
   1      0.000000062656
   2      0.000000225122
   3      0.000002787766
   4     -0.000000154298
   5      0.000000084558
   6      0.000000054478
   7     -0.000003060188
   8      0.000000708878
   9      0.000000815071
  10      0.000000115071
  11      0.000000180408
  12      0.000000010122
  13     -0.000000244088
  14      0.000000226980
  15     -0.000000230651
  16     -0.000000131292
  17      0.000001222346
  18     -0.000000065028
  19      0.000000011364
  20      0.000000030578
  21     -0.000000087267
  22     -0.000000342457
  23     -0.000000333300
  24     -0.000000013253
  25      0.000000084872
  26      0.000000022220
  27      0.000000027208
  28      0.000000104378
  29      0.000236109482
  30      0.000010314127
  31     -0.000007840900
  32      0.000000490419
  33     -0.000000501502
  34     -0.000000258682
  35     -0.000001459405
  36      0.000001092871
  37      0.000000910690
  38      0.000000108251
  39     -0.000000011993
  40     -0.000000043695
  41      0.000000090552
  42     -0.000000007172
  43      0.000016958946
  44      0.000000893424
  45     -0.000000994132
  46      0.000000004640
  47     -0.000000010607
  48      0.000000282969
  49     -0.000000383475
  50      0.000000232802
  51      0.000000048974
  52     -0.000000185792
  53     -0.000000026081
  54      0.000000069553
  55     -0.000000190514
  56     -0.000000084261
 Ene=  -0.19754561687011E+02
 Spin= Alpha
 Occup=    0.000000
   1     -0.000000033844
   2     -0.000000186392
   3     -0.000000735965
   4      0.000000077476
   5      0.000000003339
   6      0.000000004398
   7     -0.000001621369
   8     -0.000000068997
   9     -0.000000018092
  10     -0.000000163599
  11     -0.000000000815
  12      0.000000006566
  13      0.000000203009
  14      0.000000018754
  15     -0.000084079912
  16     -0.000003838733
  17      0.000003227989
  18      0.000000320454
  19      0.000000016753
  20     -0.000000009285
  21     -0.000000675770
  22     -0.000000031312
  23      0.000000000415
  24      0.000000141289
  25     -0.000000000920
  26      0.000000010450
  27      0.000000007308
  28     -0.000000002455
  29      0.000000106381
  30      0.000000050447
  31     -0.000000492679
  32     -0.000000019688
  33     -0.000000002380
  34     -0.000000001659
  35      0.000000014580
  36      0.000000114533
  37      0.000000095546
  38      0.000000002409
  39      0.000000011140
  40     -0.000000004538
  41      0.000000034349
  42      0.000000038986
  43     -0.000000154693
  44      0.000000040452
  45     -0.000000482870
  46     -0.000000019517
  47      0.000000002591
  48      0.000000000456
  49      0.000000027867
  50     -0.000000111087
  51     -0.000000090769
  52      0.000000001822
  53     -0.000000007867
  54     -0.000000005618
  55      0.000000040312
  56     -0.000000032567
 Ene=  -0.19754561687011E+02
 Spin= Alpha
 Occup=    1.000000
   1      0.000286868602
   2      0.001579275003
   3      0.006236500059
   4     -0.000656704090
   5     -0.000029285113
   6     -0.000006516073
   7      0.013731206505
   8      0.000600742778
   9      0.000125571741
  10      0.001102940744
  11     -0.000030624235
  12     -0.000092798086
  13     -0.001884112124
  14     -0.000164039452
  15      0.712273854768
  16      0.032518885094
  17     -0.027343004678
  18     -0.002714900655
  19     -0.000118737009
  20     -0.000025097948
  21      0.005724348165
  22      0.000250934862
  23      0.000053153122
  24     -0.000277013588
  25      0.000007474945
  26      0.000032952204
  27      0.000471175218
  28      0.000041123015
  29      0.000268845294
  30     -0.000382083797
  31      0.004134169727
  32      0.000165887129
  33      0.000019731649
  34      0.000012747930
  35     -0.000132260247
  36     -0.000927090748
  37     -0.000829721224
  38      0.000124371339
  39     -0.000194213487
  40      0.000051355608
  41     -0.000212717477
  42     -0.000228667453
  43      0.000281030010
  44     -0.000380382844
  45      0.004122903962
  46      0.000166749061
  47     -0.000005714989
  48     -0.000010153738
  49     -0.000230280100
  50      0.000910114958
  51      0.000824736661
  52      0.000130370306
  53      0.000179644950
  54      0.000071010057
  55     -0.000252757432
  56      0.000185741922
 Ene=  -0.10842674724512E+02
 Spin= Alpha
 Occup=    0.000000
   1      0.000034657163
   2      0.000001765976
   3     -0.000000036009
   4     -0.000000025712
   5      0.000000000163
   6      0.000000004320
   7      0.000000099255
   8      0.000000006513
   9     -0.000000000355
  10     -0.000000153614
  11     -0.000000010433
  12      0.000000042155
  13      0.000000129605
  14      0.000000013264
  15     -0.000000010371
  16      0.000000011286
  17     -0.000000466975
  18      0.000000054470
  19      0.000000002511
  20      0.000000000815
  21      0.000000320670
  22      0.000000013072
  23      0.000000002514
  24      0.000000072178
  25      0.000000009379
  26      0.000000003676
  27     -0.000000011399
  28     -0.000000003896
  29      0.000000004762
  30      0.000000011433
  31     -0.000000183340
  32     -0.000000034047
  33     -0.000000006892
  34      0.000000042495
  35     -0.000000183973
  36      0.000000094841
  37      0.000000038032
  38      0.000000077850
  39     -0.000000025822
  40     -0.000000018123
  41      0.000000001899
  42      0.000000116081
  43     -0.000000000628
  44      0.000000013331
  45     -0.000000174563
  46     -0.000000029538
  47      0.000000006557
  48     -0.000000046878
  49     -0.000000172961
  50     -0.000000106604
  51     -0.000000035503
  52      0.000000082482
  53      0.000000033303
  54     -0.000000014873
  55      0.000000018768
  56     -0.000000115961
 Ene=  -0.10842674724512E+02
 Spin= Alpha
 Occup=    1.000000
   1     -0.757473567339
   2     -0.038597265160
   3      0.000785714973
   4      0.000562998229
   5      0.000023402630
   6      0.000003966486
   7     -0.002165918212
   8     -0.000095715101
   9     -0.000021242075
  10      0.002171164154
  11     -0.000017935056
  12     -0.001085534827
  13     -0.003518207614
  14     -0.000297744698
  15      0.000226896489
  16     -0.000246017157
  17      0.010200839233
  18     -0.001189585183
  19     -0.000052318605
  20     -0.000011160629
  21     -0.007005547596
  22     -0.000306815128
  23     -0.000064439068
  24     -0.000508964188
  25      0.000013806072
  26      0.000060587402
  27      0.000865637218
  28      0.000076030914
  29     -0.000040640228
  30     -0.000272118199
  31      0.003921219279
  32      0.000716339729
  33     -0.000375761632
  34     -0.000359423089
  35      0.003987176793
  36     -0.001446711453
  37     -0.001420975717
  38     -0.000404313005
  39     -0.000983518118
  40      0.000478227124
  41      0.000662805556
  42     -0.001032606674
  43     -0.000041059020
  44     -0.000274836142
  45      0.003910480331
  46      0.000671512051
  47      0.000435550185
  48      0.000371231872
  49      0.003811166235
  50      0.001787085794
  51      0.001491256833
  52     -0.000373046303
  53      0.000959825109
  54      0.000584057001
  55      0.000454491284
  56      0.001121645948
 Ene=  -0.14189736104401E+01
 Spin= Alpha
 Occup=    1.000000
   1     -0.046351459899
   2      0.091027790538
   3     -0.005183812121
   4     -0.044778694486
   5     -0.001981605702
   6     -0.000385632767
   7      0.008617153347
   8      0.000396503173
   9      0.000083392189
  10     -0.005543795622
  11      0.000038461810
  12      0.002985986136
  13      0.008937773483
  14      0.000757890008
  15     -0.012410251884
  16      0.024037796472
  17      0.006682454308
  18     -0.009781931388
  19     -0.000458033678
  20     -0.000088468629
  21     -0.001188728771
  22     -0.000055034201
  23     -0.000012766422
  24     -0.000288270629
  25      0.000015723418
  26     -0.000140228507
  27      0.000527113111
  28      0.000048436485
  29     -0.055899478329
  30      0.110163751227
  31      0.063560555079
  32      0.023830404199
  33     -0.025696584061
  34     -0.023869659038
  35      0.007976097735
  36     -0.009045641328
  37     -0.008367860663
  38     -0.000101897310
  39     -0.001932823767
  40      0.004320313878
  41     -0.000615584986
  42     -0.002031771189
  43     -0.055823462633
  44      0.110020796460
  45      0.063465524112
  46      0.020809473106
  47      0.027758436020
  48      0.024276835221
  49      0.006994189811
  50      0.009675687671
  51      0.008490795281
  52     -0.000043430057
  53      0.001527957482
  54      0.004506200710
  55     -0.000997533385
  56      0.001803603025
 Ene=  -0.14189736104401E+01
 Spin= Alpha
 Occup=    0.000000
   1     -0.000014782590
   2      0.000029030585
   3     -0.000001651520
   4     -0.000014276863
   5     -0.000001014722
   6      0.000000988050
   7      0.000002751506
   8      0.000000136382
   9     -0.000000572090
  10     -0.000000059651
  11     -0.000000082133
  12      0.000001157627
  13      0.000003842885
  14      0.000000252454
  15     -0.000003955866
  16      0.000007661641
  17      0.000002129872
  18     -0.000003117081
  19     -0.000000388417
  20      0.000001090928
  21     -0.000000379818
  22     -0.000000002602
  23      0.000000127287
  24     -0.000000168717
  25     -0.000000025437
  26     -0.000000055789
  27      0.000000124903
  28      0.000000000123
  29     -0.000017723961
  30      0.000034976219
  31      0.000019848513
  32      0.000007678081
  33     -0.000068334067
  34      0.000057630665
  35      0.000002595640
  36     -0.000000516107
  37     -0.000004563064
  38     -0.000001147156
  39      0.000000605964
  40      0.000001255006
  41     -0.000000842523
  42     -0.000001720353
  43     -0.000017903698
  44      0.000035237558
  45      0.000020657270
  46      0.000006520537
  47      0.000070367320
  48     -0.000062101778
  49      0.000002148069
  50      0.000001375526
  51      0.000005345309
  52     -0.000001360975
  53     -0.000000693963
  54      0.000001261081
  55     -0.000001101497
  56      0.000001663567
 Ene=  -0.12553076241445E+01
 Spin= Alpha
 Occup=    0.000000
   1     -0.000014871196
   2      0.000029991300
   3      0.000002936537
   4      0.000034649022
   5      0.000001068623
   6      0.000002843748
   7      0.000002905872
   8      0.000000353856
   9     -0.000001339080
  10     -0.000000680478
  11     -0.000000033006
  12     -0.000000243062
  13      0.000003121256
  14      0.000000176584
  15     -0.000032376309
  16      0.000064031145
  17      0.000030373774
  18     -0.000021897004
  19      0.000000376238
  20     -0.000006540898
  21     -0.000003053612
  22     -0.000000211027
  23      0.000000305165
  24     -0.000001116278
  25      0.000000271953
  26     -0.000000083547
  27      0.000001905290
  28      0.000000098839
  29      0.000005236131
  30     -0.000010669343
  31     -0.000005491574
  32      0.000000248878
  33     -0.000017200787
  34      0.000025247500
  35      0.000000289678
  36      0.000000588480
  37      0.000001713540
  38     -0.000000606263
  39      0.000000521938
  40     -0.000000645535
  41      0.000000156642
  42     -0.000000240191
  43      0.000005555794
  44     -0.000011429833
  45     -0.000005667627
  46      0.000000146924
  47      0.000016935407
  48     -0.000024911230
  49      0.000000312168
  50     -0.000000463292
  51     -0.000000824377
  52     -0.000000653587
  53     -0.000000352629
  54     -0.000000617165
  55      0.000000160609
  56      0.000000351353
 Ene=  -0.12553076241445E+01
 Spin= Alpha
 Occup=    1.000000
   1      0.024714632998
   2     -0.049843937237
   3     -0.004884372410
   4     -0.057602790439
   5     -0.002418532245
   6     -0.000534400321
   7     -0.004828360396
   8     -0.000243300298
   9     -0.000045423429
  10      0.002476247093
  11     -0.000109691629
  12      0.000562370684
  13     -0.004392530415
  14     -0.000395713139
  15      0.053814131442
  16     -0.106430607697
  17     -0.050481317279
  18      0.036404124847
  19      0.001396067168
  20      0.000340050738
  21      0.005068547385
  22      0.000222080424
  23      0.000049449340
  24      0.001824659769
  25     -0.000066191806
  26      0.000152045011
  27     -0.003182036885
  28     -0.000274410560
  29     -0.008984040969
  30      0.018398938365
  31      0.009277937135
  32     -0.000079219705
  33     -0.005059102545
  34     -0.004554972942
  35     -0.000435676792
  36     -0.001540630151
  37     -0.001377549946
  38      0.000290717125
  39     -0.000133765422
  40      0.000955474423
  41     -0.000698305082
  42     -0.000159630797
  43     -0.008957315135
  44      0.018339005067
  45      0.009272286691
  46     -0.000567007008
  47      0.005040308815
  48      0.004537056735
  49     -0.000588658230
  50      0.001523701279
  51      0.001381559067
  52      0.000291842118
  53      0.000028325296
  54      0.000966277660
  55     -0.000713260833
  56      0.000020320585
 Ene=  -0.10876611231596E+01
 Spin= Alpha
 Occup=    0.999991
   1     -0.000024255407
   2      0.000044593643
   3      0.000007387835
   4     -0.001350441056
   5      0.024306786100
   6      0.021892007462
   7     -0.000104395581
   8      0.001508657242
   9      0.001359257613
  10     -0.000066058027
  11     -0.003995575064
  12     -0.000214723898
  13      0.000428804112
  14     -0.004429101618
  15     -0.000008592070
  16      0.000014557641
  17      0.000046953808
  18     -0.000229599339
  19      0.003760107746
  20      0.003387813612
  21     -0.000097220203
  22      0.001479653342
  23      0.001333084801
  24     -0.000013194089
  25     -0.000675699551
  26     -0.000037009964
  27      0.000076929280
  28     -0.000748716040
  29     -0.034113211335
  30      0.070568239823
  31      0.049436743363
  32      0.013857665269
  33      0.003087220157
  34      0.002244941709
  35      0.006116737828
  36      0.000499535013
  37      0.000257174665
  38     -0.000612674764
  39     -0.000501759185
  40     -0.000313654711
  41      0.001161296419
  42     -0.000491009218
  43      0.034136863391
  44     -0.070615593171
  45     -0.049520673891
  46     -0.014098958835
  47      0.001599666576
  48      0.001975618976
  49     -0.006134792442
  50     -0.000078564084
  51      0.000121403030
  52      0.000594484074
  53     -0.000568281322
  54      0.000243555253
  55     -0.001039553827
  56     -0.000695103578
 Ene=  -0.10876611231596E+01
 Spin= Alpha
 Occup=    0.000009
   1      0.000000088187
   2      0.000000110810
   3      0.000000030972
   4     -0.000007278269
   5      0.000170205028
   6      0.000054934421
   7     -0.000000208492
   8      0.000005752812
   9      0.000008774812
  10     -0.000000372196
  11     -0.000018250234
  12     -0.000001083171
  13      0.000002240015
  14     -0.000023619319
  15      0.000000192704
  16     -0.000000343958
  17     -0.000000729080
  18     -0.000001219248
  19      0.000046064018
  20     -0.000013420330
  21     -0.000000111347
  22      0.000010644216
  23      0.000003056218
  24      0.000000043181
  25     -0.000002341034
  26     -0.000000135085
  27      0.000000324847
  28     -0.000004676895
  29     -0.000169899959
  30      0.000351500447
  31      0.000246412852
  32      0.000068779132
  33      0.000038239174
  34     -0.000017434207
  35      0.000030400426
  36      0.000007700621
  37     -0.000004838479
  38     -0.000001296131
  39     -0.000003064267
  40     -0.000001294905
  41      0.000006761187
  42     -0.000002017408
  43      0.000170724946
  44     -0.000353123805
  45     -0.000247478408
  46     -0.000070752214
  47      0.000029215683
  48     -0.000010523118
  49     -0.000030747314
  50      0.000004727692
  51     -0.000004787735
  52      0.000001245377
  53     -0.000003106438
  54      0.000001070634
  55     -0.000006236123
  56     -0.000003170705
 Ene=  -0.73137171481257E+00
 Spin= Alpha
 Occup=    0.000021
   1      0.000098708617
   2     -0.000244282353
   3     -0.000026913113
   4      0.000118882046
   5     -0.000013274624
   6      0.000015682903
   7      0.000002605519
   8     -0.000006730459
   9      0.000007396851
  10     -0.000005193287
  11     -0.000002432399
  12     -0.000007282939
  13     -0.000011490713
  14      0.000001469975
  15     -0.000044098992
  16      0.000091932408
  17      0.000089216190
  18      0.000056044771
  19     -0.000003120571
  20     -0.000000032663
  21      0.000027067735
  22     -0.000001469842
  23      0.000000511765
  24      0.000001321138
  25     -0.000000644461
  26      0.000000090153
  27     -0.000002180930
  28      0.000000643872
  29     -0.000063863721
  30      0.000132325707
  31      0.000143039370
  32     -0.000202241923
  33      0.000173623937
  34     -0.000086604811
  35     -0.000103297049
  36      0.000052124373
  37     -0.000022985122
  38      0.000003459698
  39      0.000004838488
  40      0.000000060796
  41     -0.000006187065
  42      0.000011463436
  43     -0.000064034806
  44      0.000133309161
  45      0.000140271437
  46     -0.000187720011
  47     -0.000249095200
  48      0.000168090949
  49     -0.000096693177
  50     -0.000091370991
  51      0.000053946085
  52      0.000007197731
  53     -0.000002688714
  54     -0.000000156576
  55     -0.000001513580
  56     -0.000013953908
 Ene=  -0.73137171481257E+00
 Spin= Alpha
 Occup=    0.999979
   1      0.025442120854
   2     -0.062958715004
   3     -0.006938086056
   4      0.030434743730
   5      0.001170319823
   6      0.000731676155
   7      0.000627643244
   8     -0.000093904053
   9      0.000146572802
  10      0.001072445674
  11     -0.000020033718
  12     -0.001565833225
  13     -0.001525345513
  14     -0.000074469928
  15     -0.011380701990
  16      0.023725070882
  17      0.023016852301
  18      0.014389084603
  19      0.000755593444
  20      0.000316287472
  21      0.006956773216
  22      0.000331783417
  23      0.000148105970
  24      0.000321166044
  25     -0.000033120402
  26      0.000024176464
  27     -0.000560554395
  28     -0.000043630186
  29     -0.016500959510
  30      0.034293132303
  31      0.036495651885
  32     -0.051412356970
  33      0.010403197467
  34      0.012360226398
  35     -0.026235915538
  36      0.003741897201
  37      0.004784339081
  38      0.000786097185
  39      0.002072967145
  40      0.000015813221
  41     -0.001590967748
  42      0.002157191582
  43     -0.016427805875
  44      0.034092744211
  45      0.036448003230
  46     -0.049658007428
  47     -0.016988446889
  48     -0.012328980167
  49     -0.025612695465
  50     -0.006749858752
  51     -0.004670396648
  52      0.000797112600
  53     -0.002080795869
  54     -0.000194071555
  55     -0.001099077227
  56     -0.002441290784
 Ene=  -0.65856405811464E+00
 Spin= Alpha
 Occup=    0.000161
   1      0.000020409498
   2     -0.000048581416
   3     -0.000003049238
   4      0.000038649441
   5     -0.001387697370
   6      0.001838459627
   7      0.000019069763
   8     -0.000488444358
   9      0.000734352092
  10     -0.000000239746
  11     -0.000078348425
  12     -0.000002552445
  13     -0.000010848073
  14      0.000115176516
  15     -0.000017092631
  16      0.000036166584
  17      0.000034664212
  18      0.000061781354
  19     -0.000465750174
  20      0.001396642041
  21      0.000032703205
  22     -0.000306301458
  23      0.000659260696
  24     -0.000000246242
  25     -0.000108138312
  26     -0.000004144304
  27     -0.000007347659
  28      0.000066451072
  29      0.000068768738
  30     -0.000147167211
  31     -0.000172086291
  32      0.000021725221
  33     -0.001250436580
  34      0.002031315117
  35     -0.000026351984
  36     -0.000892610632
  37      0.001057675360
  38     -0.000107105205
  39      0.000080475807
  40     -0.000009665123
  41     -0.000064012948
  42     -0.000060145434
  43     -0.000084118575
  44      0.000180148609
  45      0.000208065486
  46      0.000041205840
  47     -0.001264702371
  48      0.002013618405
  49      0.000068263232
  50     -0.000895435381
  51      0.001049760381
  52      0.000109854975
  53      0.000075855036
  54      0.000015025305
  55      0.000071652154
  56     -0.000049643783
 Ene=  -0.65856405811464E+00
 Spin= Alpha
 Occup=    0.999839
   1     -0.000317906270
   2      0.000768842421
   3     -0.000018505527
   4      0.005701222008
   5     -0.171535406481
   6      0.190820794028
   7      0.002174377198
   8     -0.065232529488
   9      0.072566568712
  10     -0.000195409428
  11     -0.011262568245
  12     -0.000412585298
  13     -0.000727210239
  14      0.010112418189
  15      0.000221802222
  16     -0.000469447065
  17     -0.000460228006
  18      0.002615538932
  19     -0.101067237160
  20      0.112383484662
  21      0.001391000078
  22     -0.052029045607
  23      0.057857719308
  24     -0.000183870838
  25     -0.010397560592
  26     -0.000369410979
  27     -0.000691316330
  28      0.009333656041
  29      0.000188438761
  30     -0.000406323393
  31     -0.000411711650
  32      0.005878923965
  33     -0.175775964007
  34      0.194694368231
  35      0.003571374634
  36     -0.103533685669
  37      0.114723324811
  38     -0.012255440804
  39      0.008081897113
  40     -0.001209929462
  41     -0.006581509911
  42     -0.007715979957
  43      0.000188456295
  44     -0.000406333074
  45     -0.000410711288
  46      0.005822324719
  47     -0.174689220919
  48      0.195174920342
  49      0.003540431421
  50     -0.102935014584
  51      0.114975866870
  52      0.012503563380
  53      0.007693674822
  54      0.001815404567
  55      0.007658443390
  56     -0.006444401558
 Ene=  -0.62479341345951E+00
 Spin= Alpha
 Occup=    0.015097
   1     -0.000326991096
   2      0.000762538693
   3      0.000362947113
   4      0.001281691967
   5     -0.000850503048
   6     -0.000820310048
   7     -0.000231111447
   8     -0.000258766014
   9     -0.000224282874
  10      0.000067918858
  11      0.000020781346
  12      0.000034452390
  13     -0.000044771218
  14      0.000006071683
  15      0.000580123652
  16     -0.001210798150
  17     -0.001328728442
  18     -0.001806458372
  19     -0.000892997364
  20     -0.000596113641
  21     -0.000893866823
  22     -0.000472649388
  23     -0.000337274616
  24     -0.000051460242
  25      0.000044883084
  26      0.000004267261
  27      0.000085056433
  28      0.000060857494
  29     -0.000414089264
  30      0.000877933771
  31      0.000858861544
  32     -0.001079386819
  33      0.000501472415
  34      0.001399270454
  35     -0.000557093399
  36      0.000394199754
  37      0.000753392679
  38     -0.000002609389
  39      0.000045507371
  40     -0.000061408049
  41      0.000003893744