[Molden Format]
[Title]
generated by TRESC, real part2 of MOs of job CO3
 
[Atoms] AU
 C   1   6    0.8683455824    5.9117408867    0.3946624736
 O   2   8    3.0759666602    6.0084693058    0.4150267281
 O   3   8   -1.2068755866    6.9101599458    1.3549785802
 O   4   8   -1.0934266921    4.7345528503   -0.6041387501
[GTO]
  1 0
 s  5 1.0
     1238.4016938000        0.0059599745
      186.2900499200        0.0422621111
       42.2511763500        0.1866575214
       11.6765579300        0.4675815865
        3.5930506500        0.4422897287
 s  1 1.0
        0.4024514700        1.0000000000
 s  1 1.0
        0.1309018300        1.0000000000
 p  3 1.0
        9.4680970600        0.0570294585
        2.0103545100        0.3130471495
        0.5477100500        0.7605135301
 p  1 1.0
        0.1526861400        1.0000000000
 d  1 1.0
        0.8000000000        1.0000000000
 
  2 0
 s  5 1.0
     2266.1767785000        0.0060711540
      340.8701019100        0.0417308970
       77.3631351700        0.1850777598
       21.4796449400        0.4668774046
        6.6589433100        0.4435718061
 s  1 1.0
        0.8097597600        1.0000000000
 s  1 1.0
        0.2553077200        1.0000000000
 p  3 1.0
       17.7215043200        0.0628680198
        3.8635505400        0.3334973703
        1.0480920900        0.7412421661
 p  1 1.0
        0.2764154400        1.0000000000
 d  1 1.0
        1.2000000000        1.0000000000
 
  3 0
 s  5 1.0
     2266.1767785000        0.0060711540
      340.8701019100        0.0417308970
       77.3631351700        0.1850777598
       21.4796449400        0.4668774046
        6.6589433100        0.4435718061
 s  1 1.0
        0.8097597600        1.0000000000
 s  1 1.0
        0.2553077200        1.0000000000
 p  3 1.0
       17.7215043200        0.0628680198
        3.8635505400        0.3334973703
        1.0480920900        0.7412421661
 p  1 1.0
        0.2764154400        1.0000000000
 d  1 1.0
        1.2000000000        1.0000000000
 
  4 0
 s  5 1.0
     2266.1767785000        0.0060711540
      340.8701019100        0.0417308970
       77.3631351700        0.1850777598
       21.4796449400        0.4668774046
        6.6589433100        0.4435718061
 s  1 1.0
        0.8097597600        1.0000000000
 s  1 1.0
        0.2553077200        1.0000000000
 p  3 1.0
       17.7215043200        0.0628680198
        3.8635505400        0.3334973703
        1.0480920900        0.7412421661
 p  1 1.0
        0.2764154400        1.0000000000
 d  1 1.0
        1.2000000000        1.0000000000
 
[5D]
[7F]
[9G]
[MO]
 Ene=   0.10113100765784E+01
 Spin= Alpha
 Occup=    0.000000
   1      0.003952767808
   2      0.013642963738
   3      0.634405686730
   4     -0.084239593440
   5     -0.004213569049
   6     -0.001066099621
   7     -0.530069186042
   8     -0.019947297769
   9     -0.004377673495
  10     -0.028115749996
  11      0.004682299795
  12     -0.073862630285
  13      0.064104133543
  14      0.006613295251
  15      0.019584279146
  16     -0.099848511852
  17      0.189434648755
  18     -0.291456097081
  19     -0.012034856739
  20     -0.002383875814
  21      0.366536590928
  22      0.013611921426
  23      0.002664089751
  24      0.005949049782
  25      0.000186627933
  26     -0.008749108448
  27     -0.008416248653
  28     -0.000734697596
  29     -0.051438344210
  30      0.316539324460
  31     -0.739794499535
  32     -0.079472588690
  33      0.162900701921
  34      0.147243584611
  35     -0.034557624460
  36     -0.106766342785
  37     -0.092662611864
  38      0.006527937860
  39     -0.009906369196
  40     -0.018301831001
  41     -0.006740618316
  42     -0.012061417582
  43     -0.051333136214
  44      0.316636427039
  45     -0.741109688899
  46     -0.061772423518
  47     -0.165833763554
  48     -0.148925211211
  49     -0.044669969030
  50      0.095993015581
  51      0.090080326083
  52      0.006891548059
  53      0.011013112533
  54     -0.017105074038
  55     -0.008965759574
  56      0.011131428027
 Ene=   0.10113100765784E+01
 Spin= Alpha
 Occup=    0.000000
   1     -0.000530877745
   2     -0.001832390377
   3     -0.085197032182
   4      0.011328527927
   5      0.000299677660
   6     -0.000309242445
   7      0.071142039008
   8      0.002957519601
   9      0.003911128583
  10      0.003922122698
  11     -0.000453717861
  12      0.009947096673
  13     -0.008552296072
  14     -0.000603495650
  15     -0.002630024635
  16      0.013408890075
  17     -0.025439482308
  18      0.039125015419
  19      0.001753406848
  20      0.001286911814
  21     -0.049183749869
  22     -0.002168888987
  23     -0.002973680614
  24     -0.000769621171
  25     -0.000098555456
  26      0.001175423530
  27      0.001148932003
  28      0.000095001817
  29      0.006839703671
  30     -0.042377511077
  31      0.099659900011
  32      0.010550126352
  33     -0.021018781324
  34     -0.019583959054
  35      0.004413283459
  36      0.012230974593
  37      0.011162760467
  38     -0.000771858013
  39      0.001411354687
  40      0.002452928243
  41      0.000967267388
  42      0.001576041264
  43      0.006962091382
  44     -0.042655167842
  45      0.099217632987
  46      0.008417026963
  47      0.020807032714
  48      0.022781068623
  49      0.006327524479
  50     -0.011784592651
  51     -0.016913755122
  52     -0.000867682307
  53     -0.001416813297
  54      0.002327316530
  55      0.001239942527
  56     -0.001524910232
 Ene=   0.10477578297544E+01
 Spin= Alpha
 Occup=    0.000000
   1      0.000110490248
   2     -0.001612577307
   3     -0.000347899156
   4     -0.000250663139
   5     -0.000252282926
   6     -0.000426753924
   7      0.001752084249
   8     -0.000650801328
   9      0.002189427149
  10      0.000532606486
  11      0.000617604765
  12      0.000480254742
  13     -0.001049189854
  14      0.000007720729
  15      0.000084128411
  16     -0.000638942055
  17      0.001036446153
  18      0.001468041401
  19      0.000624709433
  20      0.004440431332
  21     -0.003342949077
  22     -0.000642780419
  23     -0.006341144585
  24     -0.000014964166
  25     -0.000172801232
  26     -0.000026790898
  27      0.000019200614
  28     -0.000003497379
  29      0.000117453016
  30     -0.000768814859
  31      0.000766392616
  32      0.001726055410
  33      0.000759958963
  34      0.000228641622
  35     -0.000820278763
  36     -0.000811474535
  37     -0.001147099464
  38     -0.000125713660
  39      0.000126966684
  40     -0.000291217194
  41      0.000289410068
  42      0.000137035336
  43     -0.000345591270
  44      0.001808552537
  45     -0.001228592311
  46      0.003130334599
  47     -0.001906081118
  48     -0.002717435953
  49     -0.003996968035
  50      0.002630493119
  51      0.002718804601
  52     -0.000212928453
  53     -0.000022592163
  54     -0.000251526675
  55      0.000366872269
  56     -0.000027872359
 Ene=   0.10477578297544E+01
 Spin= Alpha
 Occup=    0.000000
   1      0.017665793811
   2     -0.258007588805
   3     -0.056228509403
   4     -0.042525297624
   5     -0.001443540804
   6     -0.000145615021
   7      0.277909478908
   8      0.010817254526
   9      0.003056548099
  10      0.086161878340
  11     -0.006569940593
  12      0.072324768165
  13     -0.163930282873
  14     -0.016004550858
  15      0.013398099040
  16     -0.101975102889
  17      0.166211713416
  18      0.245514195142
  19      0.006805570992
  20      0.001091216900
  21     -0.547966938832
  22     -0.018382272525
  23     -0.003552989773
  24     -0.001416579297
  25      0.000241201631
  26     -0.002978236748
  27      0.003059316552
  28      0.000475393179
  29     -0.018419446779
  30      0.084235034906
  31     -0.038080768415
  32      0.369643934244
  33      0.255389144608
  34      0.218011592994
  35     -0.362124291941
  36     -0.329589732949
  37     -0.285454683213
  38     -0.025585497432
  39      0.014917043319
  40     -0.042822614756
  41      0.052403199344
  42      0.018526393051
  43     -0.018010662973
  44      0.081691355702
  45     -0.035428881669
  46      0.392681019956
  47     -0.219819441024
  48     -0.209927342008
  49     -0.390566859944
  50      0.295324609086
  51      0.277242607041
  52     -0.025932288096
  53     -0.009325329899
  54     -0.044172776905
  55      0.054889526793
  56     -0.008356836290
 Ene=   0.10807713198295E+01
 Spin= Alpha
 Occup=    0.000000
   1      0.000090587035
   2     -0.002042851976
   3     -0.001590180831
   4     -0.000296463749
   5     -0.000479372600
   6     -0.000413295921
   7      0.000736728314
   8      0.000354143656
   9      0.000070244174
  10      0.000566956860
  11      0.000621249868
  12      0.000338934439
  13     -0.001459253107
  14      0.000590970219
  15     -0.000007514522
  16     -0.000318304171
  17      0.002078121244
  18      0.001767503386
  19      0.002211742750
  20      0.001884686972
  21     -0.003926578996
  22     -0.003164102039
  23     -0.002573317274
  24     -0.000076261271
  25     -0.000091790542
  26     -0.000019801491
  27      0.000058895678
  28     -0.000107199535
  29     -0.000122380398
  30      0.000272338231
  31      0.000619598542
  32      0.000036713100
  33     -0.000572868113
  34      0.001838849800
  35      0.001572675724
  36      0.000400863379
  37     -0.002749746725
  38     -0.000205268378
  39      0.000113304967
  40     -0.000234198523
  41      0.000184174034
  42      0.000160477045
  43     -0.000152239705
  44      0.000849974807
  45     -0.000684102242
  46      0.002783370810
  47     -0.000143091097
  48     -0.002893637877
  49     -0.003976665292
  50     -0.000028626399
  51      0.003595130964
  52     -0.000261817100
  53      0.000009115838
  54     -0.000244841445
  55      0.000300326041
  56      0.000009485462
 Ene=   0.10807713198295E+01
 Spin= Alpha
 Occup=    0.000000
   1     -0.000130341545
   2      0.002858856722
   3      0.002209329613
   4     -0.001973314331
   5      0.045756413652
   6      0.041191888627
   7     -0.000343198037
   8     -0.020649368809
   9     -0.018582608217
  10     -0.002142032564
  11     -0.064691940876
  12     -0.003991692815
  13      0.008558983880
  14     -0.071626918150
  15     -0.000014977716
  16      0.000551958834
  17     -0.002714060449
  18      0.008372787064
  19     -0.209055677592
  20     -0.188179411359
  21     -0.009568499985
  22      0.289150879528
  23      0.260228984287
  24      0.000164311565
  25      0.009716550929
  26      0.000538243832
  27     -0.001144242992
  28      0.010762707564
  29     -0.001270492977
  30      0.027821203879
  31     -0.064843270810
  32      0.130426612451
  33      0.052452528748
  34      0.045861756167
  35     -0.269835338399
  36     -0.042415686028
  37     -0.033390373477
  38     -0.002813125052
  39     -0.005001514040
  40     -0.000220469916
  41      0.005025214952
  42     -0.005221528875
  43      0.001615443485
  44     -0.029188602073
  45      0.064417859174
  46     -0.139874593682
  47      0.046372716906
  48      0.043206552115
  49      0.277044493965
  50     -0.026170542777
  51     -0.028413478173
  52      0.002873986285
  53     -0.005035908180
  54      0.000275728682
  55     -0.004902485547
  56     -0.005947909815
 Ene=   0.11608763341678E+01
 Spin= Alpha
 Occup=    0.000000
   1      0.000101966455
   2     -0.001555428599
   3     -0.004068108881
   4      0.000213856440
   5     -0.000285259707
   6      0.000241726224
   7      0.002164002347
   8      0.004525523093
   9     -0.004356487963
  10      0.000560844836
  11     -0.000511608087
  12      0.000643314563
  13     -0.001155270517
  14      0.000289979583
  15      0.000011416612
  16     -0.000325033501
  17      0.001460666853
  18      0.001351093214
  19      0.003403053823
  20     -0.003600626643
  21     -0.002836549902
  22     -0.005686591155
  23      0.005870618703
  24     -0.000055380773
  25      0.000251364610
  26      0.000064793537
  27      0.000103402292
  28     -0.000221060281
  29      0.000239896339
  30     -0.001665825843
  31      0.003807930128
  32      0.001272780567
  33      0.001874182300
  34     -0.001311230273
  35     -0.000420778886
  36     -0.003621427821
  37      0.001633754961
  38     -0.000194272472
  39     -0.000000250727
  40     -0.000152767996
  41      0.000185785416
  42      0.000269425542
  43      0.000194081166
  44     -0.001333240867
  45      0.003221314955
  46      0.000981720242
  47      0.001382684327
  48     -0.001787912915
  49      0.000103562973
  50     -0.001940191887
  51      0.003180446591
  52     -0.000056876502
  53     -0.000248330974
  54     -0.000128581011
  55      0.000281124408
  56      0.000000055572
 Ene=   0.11608763341678E+01
 Spin= Alpha
 Occup=    0.000000
   1     -0.000069623492
   2      0.001050193834
   3      0.002788265560
   4     -0.001135054933
   5      0.029799263905
   6     -0.033146991494
   7      0.014923521383
   8     -0.493677238157
   9      0.549017159125
  10      0.000503776561
  11      0.053839208608
  12      0.001433480432
  13      0.004566281220
  14     -0.048198978661
  15     -0.000001314264
  16      0.000192976783
  17     -0.000962699790
  18      0.012012086849
  19     -0.390874868664
  20      0.434754965236
  21     -0.019420491324
  22      0.643516685508
  23     -0.715719080809
  24     -0.000440961619
  25     -0.030060547187
  26     -0.001107519993
  27     -0.002152912469
  28      0.026970085961
  29     -0.000142663839
  30      0.000998073116
  31     -0.002419347661
  32      0.005012207763
  33     -0.176292802347
  34      0.195641820025
  35     -0.009466122041
  36      0.290349437977
  37     -0.321673169692
  38      0.008514010230
  39      0.015260731588
  40      0.001646757166
  41      0.005612727979
  42     -0.013602594745
  43     -0.000137247679
  44      0.000959256289
  45     -0.002352715578
  46      0.005027788102
  47     -0.175649026297
  48      0.195721607574
  49     -0.009475247406
  50      0.288664530380
  51     -0.322247036224
  52     -0.007854834779
  53      0.015679222373
  54     -0.000347159738
  55     -0.003823783319
  56     -0.014206139935
 Ene=   0.11982939491166E+01
 Spin= Alpha
 Occup=    0.000000
   1     -0.000087526316
   2      0.001039979213
   3      0.004548176515
   4      0.000836176809
   5     -0.022218633051
   6     -0.020100658220
   7     -0.006944218057
   8      0.075100829355
   9      0.069267020751
  10     -0.000088591494
  11      0.007142266156
  12     -0.000176482701
  13     -0.000103733044
  14      0.007758056889
  15      0.000015252287
  16      0.000067768221
  17     -0.000356238950
  18     -0.002637147140
  19      0.035600830925
  20      0.033295374210
  21      0.005045452846
  22     -0.066051244135
  23     -0.061504457965
  24      0.000028433706
  25     -0.001453087754
  26     -0.000149692026
  27      0.000106042595
  28     -0.001515719682
  29      0.008370441027
  30     -0.065941748719
  31      0.130209373102
  32      0.035442735911
  33      0.031898954242
  34      0.027127245818
  35     -0.057217709339
  36     -0.119068978603
  37     -0.104974603335
  38     -0.000003620567
  39     -0.000684258894
  40     -0.003901618271
  41      0.001016287042
  42     -0.000892074171
  43     -0.009151424058
  44      0.070844015501
  45     -0.140062914381
  46     -0.039553027593
  47      0.027069317363
  48      0.027233771439
  49      0.068080546534
  50     -0.112942650017
  51     -0.105806979839
  52      0.000172406417
  53     -0.000804931517
  54      0.003861378254
  55     -0.001020918458
  56     -0.000867883273
 Ene=   0.11982939491166E+01
 Spin= Alpha
 Occup=    0.000000
   1     -0.000053851517
   2      0.000615242132
   3      0.002703892721
   4      0.000937768812
   5     -0.021848052732
   6     -0.019521720823
   7     -0.005715864619
   8      0.075346721871
   9      0.065705145924
  10     -0.000127041171
  11      0.006754992996
  12      0.000020456419
  13     -0.000434853301
  14      0.007754013994
  15      0.000009481158
  16      0.000033005125
  17     -0.000182627908
  18     -0.002320334748
  19      0.036278355895
  20      0.030958939278
  21      0.004395476068
  22     -0.066984196114
  23     -0.057538798853
  24     -0.000015013818
  25     -0.001301825386
  26     -0.000118287171
  27      0.000114442225
  28     -0.001589802112
  29      0.008336773555
  30     -0.065429255456
  31      0.129225312643
  32      0.034895461101
  33      0.030765834606
  34      0.026839713086
  35     -0.055726452932
  36     -0.116412207204
  37     -0.102954149960
  38     -0.000144708938
  39     -0.000681988524
  40     -0.003834755613
  41      0.000957588156
  42     -0.000764700381
  43     -0.008800007784
  44      0.068350475018
  45     -0.135107782156
  46     -0.038536177024
  47      0.028390197989
  48      0.024701692194
  49      0.066894390690
  50     -0.112739787207
  51     -0.100680501344
  52      0.000104961819
  53     -0.000890648377
  54      0.003762360790
  55     -0.000978793372
  56     -0.000848833753
 Ene=   0.13849382489321E+01
 Spin= Alpha
 Occup=    0.000000
   1      0.000892589432
   2     -0.012511620688
   3     -0.030565718637
   4     -0.002117645565
   5      0.000330734184
   6      0.000370605920
   7     -0.006362463847
   8      0.001142459105
   9      0.000493438723
  10      0.001775937899
  11     -0.000380728878
  12     -0.000176613255
  13     -0.003023586607
  14     -0.000366423547
  15      0.001809417992
  16     -0.013743885233
  17      0.036780853296
  18     -0.002829715840
  19      0.000208697136
  20     -0.000401910988
  21     -0.010671236856
  22     -0.001332423055
  23      0.000166023008
  24      0.000114653847
  25      0.000023473685
  26      0.000189865163
  27     -0.000228849514
  28     -0.000104901153
  29      0.001247589896
  30     -0.008076239425
  31      0.012441108941
  32     -0.001731126965
  33      0.001188474144
  34      0.000733214240
  35      0.007197054968
  36     -0.001039637965
  37     -0.000670625401
  38      0.000039256822
  39      0.000343943340
  40     -0.000385300194
  41     -0.000066598695
  42      0.000372676598
  43      0.001706787756
  44     -0.011653268207
  45      0.020547379939
  46     -0.001575134593
  47     -0.001297439422
  48     -0.001477741094
  49      0.008470530036
  50      0.003834640061
  51      0.003641493744
  52      0.000125298982
  53     -0.000338290944
  54     -0.000571443823
  55     -0.000012655100
  56     -0.000387942592
 Ene=   0.13849382489321E+01
 Spin= Alpha
 Occup=    0.000000
   1      0.022769974408
   2     -0.319204643366
   3     -0.779734365396
   4     -0.053473174929
   5     -0.001919875616
   6     -0.000118611579
   7     -0.160635278103
   8     -0.006464294863
   9     -0.000257811691
  10      0.045384781264
  11     -0.001306151042
  12     -0.004140964365
  13     -0.077428788115
  14     -0.007146423873
  15      0.046163528132
  16     -0.350638174835
  17      0.938323439664
  18     -0.071882341055
  19     -0.003603017302
  20     -0.000342216077
  21     -0.273150786989
  22     -0.011636306846
  23     -0.003320769178
  24      0.002897999259
  25     -0.000400399879
  26      0.004815263314
  27     -0.006025615884
  28     -0.000527629519
  29      0.037455410922
  30     -0.249897797872
  31      0.416938973113
  32     -0.043897328618
  33      0.029241448559
  34      0.028004672320
  35      0.203871607209
  36     -0.050689282620
  37     -0.052197841739
  38      0.002241768586
  39      0.009223727476
  40     -0.011622390879
  41     -0.001936280995
  42      0.009705196107
  43      0.037903000844
  44     -0.253361048959
  45      0.424579202612
  46     -0.040517606837
  47     -0.033812131698
  48     -0.028786231014
  49      0.198661652681
  50      0.071563410283
  51      0.057863720195
  52      0.001950123345
  53     -0.008271295842
  54     -0.012739358449
  55     -0.000151004283
  56     -0.009702584827
 Ene=   0.14707735516978E+01
 Spin= Alpha
 Occup=    0.000000
   1      0.000027967369
   2      0.000766412702
   3     -0.000752737769
   4     -0.015190608575
   5      0.287189682560
   6      0.258618996797
   7     -0.071097802055
   8      1.382679046852
   9      1.245058790810
  10     -0.002021126666
  11     -0.123813828511
  12     -0.006026985084
  13      0.012993403890
  14     -0.137243222947
  15     -0.000197225741
  16      0.001168590728
  17     -0.001664065944
  18     -0.015396105536
  19      0.282823234909
  20      0.254697522053
  21      0.039778290099
  22     -0.743863675241
  23     -0.669869542841
  24     -0.000955725857
  25     -0.056454484343
  26     -0.002918929737
  27      0.006051648660
  28     -0.062576781384
  29     -0.169230650945
  30      1.315164910244
  31     -3.071578052674
  32      0.240045081764
  33      0.043259977982
  34      0.031641424039
  35     -1.090165055050
  36      0.531999825300
  37      0.511240123493
  38     -0.025520488633
  39     -0.023850947245
  40      0.056546558305
  41      0.033600180938
  42     -0.022152865973
  43      0.169704098566
  44     -1.317886573764
  45      3.074546893427
  46     -0.244678633826
  47      0.020789219879
  48      0.026073081671
  49      1.031180466009
  50      0.627172279355
  51      0.532541909569
  52      0.024655597404
  53     -0.020451658560
  54     -0.059296436297
  55     -0.028508541706
  56     -0.026947472322
 Ene=   0.14707735516978E+01
 Spin= Alpha
 Occup=    0.000000
   1      0.000084538242
   2     -0.001310667245
   3     -0.002455117082
   4     -0.000521534046
   5      0.000256919732
   6      0.000245568085
   7     -0.003306599296
   8      0.001211880168
   9      0.001158702078
  10      0.000036015926
  11     -0.000121380828
  12     -0.000365190350
  13     -0.000146316917
  14     -0.000129831710
  15      0.000372563060
  16     -0.002676183700
  17      0.006688273179
  18     -0.000291225896
  19      0.000279468147
  20      0.000223130246
  21     -0.001680825901
  22     -0.000823503780
  23     -0.000632306709
  24      0.000059702524
  25     -0.000050682527
  26     -0.000036886568
  27     -0.000110044310
  28     -0.000074580205
  29     -0.000162673061
  30      0.001227903776
  31     -0.003429277680
  32      0.000171832755
  33     -0.000037504402
  34      0.000259681758
  35     -0.000728744563
  36      0.000776748774
  37      0.000420302650
  38      0.000010108051
  39     -0.000080250372
  40      0.000027071781
  41     -0.000049743803
  42     -0.000063004022
  43      0.000165998657
  44     -0.001325548205
  45      0.002531127191
  46     -0.000299011660
  47      0.000105673401
  48     -0.000220437302
  49      0.001344587920
  50      0.000366004994
  51      0.000616242525
  52      0.000064381675
  53      0.000038090300
  54     -0.000079216984
  55     -0.000114691664
  56     -0.000000494649
 Ene=   0.15709044609141E+01
 Spin= Alpha
 Occup=    0.000000
   1      0.000027690146
   2     -0.000530017670
   3     -0.000552793638
   4     -0.001264817743
   5      0.029333576909
   6     -0.032647035800
   7     -0.001811059114
   8     -0.052494802054
   9      0.058199053932
  10     -0.010435660509
  11     -0.578319840678
  12     -0.021185606781
  13     -0.040892120769
  14      0.518937136168
  15      0.000305113905
  16     -0.002132626036
  17      0.005223944745
  18      0.005177442576
  19     -0.147413014041
  20      0.164005591137
  21     -0.000185072597
  22     -0.039457815202
  23      0.043801841902
  24      0.001971947564
  25      0.129887904076
  26      0.004518730177
  27      0.008872807408
  28     -0.116564399469
  29     -0.000125080254
  30      0.000792495688
  31     -0.001915553851
  32     -0.000803670741
  33      0.029189683941
  34     -0.032926627955
  35     -0.003463120967
  36      0.092960251140
  37     -0.102431529841
  38     -0.127238481490
  39      0.094900135098
  40     -0.012364274755
  41     -0.067719494850
  42     -0.089876609839
  43     -0.000124147926
  44      0.000785110749
  45     -0.001896474057
  46     -0.000817310923
  47      0.029295028127
  48     -0.032114629329
  49     -0.003425281945
  50      0.092563442011
  51     -0.103985429958
  52      0.130457946255
  53      0.091214272730
  54      0.019133665258
  55      0.080534050527
  56     -0.077156748455
 Ene=   0.15709044609141E+01
 Spin= Alpha
 Occup=    0.000000
   1     -0.000032586394
   2      0.000478671572
   3      0.000459246661
   4      0.000249360076
   5     -0.000949043839
   6      0.001064496632
   7      0.002868055611
   8      0.001804365306
   9     -0.001898701040
  10      0.000150979578
  11      0.018837642387
  12      0.000991216941
  13      0.001094020564
  14     -0.016943776308
  15     -0.000270544353
  16      0.001870852571
  17     -0.004381532409
  18     -0.000286479715
  19      0.004785997935
  20     -0.005360821236
  21      0.001140607169
  22      0.001360861629
  23     -0.001394630731
  24     -0.000120110780
  25     -0.004231455059
  26     -0.000107951515
  27     -0.000239311918
  28      0.003807414522
  29      0.000100226586
  30     -0.000637252529
  31      0.001578720398
  32     -0.000151146701
  33     -0.000784274357
  34      0.001219930616
  35      0.000406329912
  36     -0.003441986819
  37      0.003047227283
  38      0.004123360333
  39     -0.003046722943
  40      0.000354757374
  41      0.002297774236
  42      0.003039689947
  43      0.000094087281
  44     -0.000592835336
  45      0.001475803289
  46     -0.000118541104
  47     -0.001133091784
  48      0.000900234597
  49      0.000324297024
  50     -0.002600050622
  51      0.003671948516
  52     -0.004279198733
  53     -0.003012178658
  54     -0.000674022729
  55     -0.002516439526
  56      0.002425436768
 Ene=   0.15929611947609E+01
 Spin= Alpha
 Occup=    0.000000
   1     -0.000263347138
   2      0.007077204591
   3      0.002306481678
   4      0.005129411112
   5      0.000001136437
   6     -0.000057176324
   7      0.070636802032
   8      0.001863577621
   9     -0.000931550091
  10     -0.000103023044
  11      0.000461350017
  12      0.005722870632
  13     -0.000512119100
  14     -0.000430240344
  15     -0.005462706499
  16      0.038138405154
  17     -0.094420156062
  18     -0.006142474967
  19     -0.000351775334
  20     -0.000804445196
  21      0.027721922148
  22      0.001862347087
  23      0.001251584981
  24     -0.000915834407
  25     -0.000094000103
  26      0.001191592280
  27      0.001377468688
  28      0.000273930089
  29      0.003105070229
  30     -0.019959212482
  31      0.045879525361
  32     -0.004102267531
  33      0.005233256975
  34      0.004673919565
  35      0.010523682958
  36     -0.010389638665
  37     -0.009288358113
  38     -0.000668035589
  39      0.001627749960
  40     -0.000894581109
  41      0.001478828603
  42      0.002046647102
  43      0.002885531796
  44     -0.018170350735
  45      0.041325374092
  46     -0.002675741312
  47     -0.005714686245
  48     -0.005190660571
  49      0.006985755967
  50      0.010457658589
  51      0.009685082456
  52     -0.001019584913
  53     -0.001658056254
  54     -0.001019889975
  55      0.001754869828
  56     -0.001475243393
 Ene=   0.15929611947609E+01
 Spin= Alpha
 Occup=    0.000000
   1     -0.009601943288
   2      0.258082143298
   3      0.084078543035
   4      0.186654739671
   5      0.007776086893
   6      0.001249433960
   7      2.573401795455
   8      0.109923945698
   9      0.021423422148
  10     -0.011608147954
  11     -0.009727195328
  12      0.206751793249
  13     -0.023855518917
  14     -0.003013065323
  15     -0.199201044933
  16      1.390732070316
  17     -3.443014823491
  18     -0.224360065702
  19     -0.010726112741
  20     -0.002242355545
  21      1.012190976617
  22      0.045842174047
  23      0.010586051680
  24     -0.034365060517
  25     -0.000579501680
  26      0.043400816464
  27      0.050143836585
  28      0.003949910259
  29      0.109539715204
  30     -0.697744681437
  31      1.596468623810
  32     -0.134857248187
  33      0.194447938934
  34      0.178915158785
  35      0.341104309171
  36     -0.369796012986
  37     -0.343177926247
  38     -0.029467854047
  39      0.061579588449
  40     -0.031725903742
  41      0.053150112064
  42      0.070678701087
  43      0.108919910972
  44     -0.692719494391
  45      1.583496779909
  46     -0.112781665973
  47     -0.205764836108
  48     -0.181517209302
  49      0.296465287517
  50      0.396477270978
  51      0.346956915706
  52     -0.031089376631
  53     -0.055975000584
  54     -0.037789447092
  55      0.066087279086
  56     -0.059622690061
 Ene=   0.15978519928164E+01
 Spin= Alpha
 Occup=    0.000000
   1     -0.000002738916
   2      0.000076774810
   3     -0.000000664225
   4      0.000064915647
   5     -0.000022767087
   6     -0.000037823982
   7      0.000831709666
   8     -0.000089726144
   9     -0.000072011294
  10     -0.001367052895
  11     -0.000103942376
  12     -0.000124328624
  13     -0.000803066290
  14      0.000101366566
  15     -0.000060815194
  16      0.000426566679
  17     -0.001072302310
  18     -0.000062401691
  19     -0.000062047013
  20      0.000023600350
  21      0.000306883281
  22      0.000054249897
  23      0.000057059011
  24     -0.000193089523
  25      0.000049367366
  26     -0.000010344696
  27     -0.000087615586
  28     -0.000036235708
  29      0.000044260587
  30     -0.000311263733
  31      0.000758363477
  32     -0.000059122929
  33      0.000093196426
  34      0.000005951666
  35      0.000220908036
  36     -0.000411348218
  37      0.000134374087
  38      0.000024371870
  39     -0.000175319240
  40     -0.000004535404
  41      0.000034846046