[Molden Format]
[Title]
generated by TRESC, imaginary part2 of MOs of job CO3
 
[Atoms] AU
 C   1   6    0.8683455824    5.9117408867    0.3946624736
 O   2   8    3.0759666602    6.0084693058    0.4150267281
 O   3   8   -1.2068755866    6.9101599458    1.3549785802
 O   4   8   -1.0934266921    4.7345528503   -0.6041387501
[GTO]
  1 0
 s  5 1.0
     1238.4016938000        0.0059599745
      186.2900499200        0.0422621111
       42.2511763500        0.1866575214
       11.6765579300        0.4675815865
        3.5930506500        0.4422897287
 s  1 1.0
        0.4024514700        1.0000000000
 s  1 1.0
        0.1309018300        1.0000000000
 p  3 1.0
        9.4680970600        0.0570294585
        2.0103545100        0.3130471495
        0.5477100500        0.7605135301
 p  1 1.0
        0.1526861400        1.0000000000
 d  1 1.0
        0.8000000000        1.0000000000
 
  2 0
 s  5 1.0
     2266.1767785000        0.0060711540
      340.8701019100        0.0417308970
       77.3631351700        0.1850777598
       21.4796449400        0.4668774046
        6.6589433100        0.4435718061
 s  1 1.0
        0.8097597600        1.0000000000
 s  1 1.0
        0.2553077200        1.0000000000
 p  3 1.0
       17.7215043200        0.0628680198
        3.8635505400        0.3334973703
        1.0480920900        0.7412421661
 p  1 1.0
        0.2764154400        1.0000000000
 d  1 1.0
        1.2000000000        1.0000000000
 
  3 0
 s  5 1.0
     2266.1767785000        0.0060711540
      340.8701019100        0.0417308970
       77.3631351700        0.1850777598
       21.4796449400        0.4668774046
        6.6589433100        0.4435718061
 s  1 1.0
        0.8097597600        1.0000000000
 s  1 1.0
        0.2553077200        1.0000000000
 p  3 1.0
       17.7215043200        0.0628680198
        3.8635505400        0.3334973703
        1.0480920900        0.7412421661
 p  1 1.0
        0.2764154400        1.0000000000
 d  1 1.0
        1.2000000000        1.0000000000
 
  4 0
 s  5 1.0
     2266.1767785000        0.0060711540
      340.8701019100        0.0417308970
       77.3631351700        0.1850777598
       21.4796449400        0.4668774046
        6.6589433100        0.4435718061
 s  1 1.0
        0.8097597600        1.0000000000
 s  1 1.0
        0.2553077200        1.0000000000
 p  3 1.0
       17.7215043200        0.0628680198
        3.8635505400        0.3334973703
        1.0480920900        0.7412421661
 p  1 1.0
        0.2764154400        1.0000000000
 d  1 1.0
        1.2000000000        1.0000000000
 
[5D]
[7F]
[9G]
[MO]
 Ene=   0.10113100765784E+01
 Spin= Alpha
 Occup=    0.000000
   1     -0.006213659882
   2     -0.021448210929
   3     -0.997264570477
   4      0.132479143467
   5      0.005436268531
   6      0.001005430402
   7      0.832907126699
   8      0.038947936908
   9      0.008039783577
  10      0.044629948446
  11     -0.006673101445
  12      0.116195925290
  13     -0.100577771630
  14     -0.009881669335
  15     -0.030785892005
  16      0.156958539667
  17     -0.297783149324
  18      0.458074644141
  19      0.020684341678
  20      0.004429296998
  21     -0.575926894542
  22     -0.026958779396
  23     -0.005623035607
  24     -0.009262507305
  25     -0.000323020479
  26      0.013761544346
  27      0.013295530920
  28      0.001005189760
  29      0.080670244128
  30     -0.497208559442
  31      1.163774788877
  32      0.124454080411
  33     -0.249258875255
  34     -0.235909109138
  35      0.053843189173
  36      0.155655635484
  37      0.149414939053
  38     -0.010059630360
  39      0.015506486337
  40      0.028739232664
  41      0.010701170529
  42      0.019090325103
  43      0.080883069969
  44     -0.498122286211
  45      1.164156449176
  46      0.097293388385
  47      0.260657976508
  48      0.237288235817
  49      0.071379525464
  50     -0.153600763990
  51     -0.148266385093
  52     -0.010566222745
  53     -0.017436046774
  54      0.026971367018
  55      0.014237051904
  56     -0.017318133857
 Ene=   0.10113100765784E+01
 Spin= Alpha
 Occup=    0.000000
   1      0.000783734626
   2      0.002704733847
   3      0.125782866638
   4     -0.016710021814
   5     -0.000675495731
   6     -0.000110426385
   7     -0.105052258798
   8     -0.004913992018
   9     -0.001143321137
  10     -0.002064857846
  11      0.000788858873
  12     -0.014220255502
  13      0.014737836400
  14      0.001401826109
  15      0.003882915908
  16     -0.019796723792
  17      0.037559349719
  18     -0.057774964764
  19     -0.002619978844
  20     -0.000592212520
  21      0.072638148125
  22      0.003420311563
  23      0.000801101590
  24      0.001926182872
  25      0.000030672389
  26     -0.001643035898
  27     -0.001240963152
  28     -0.000088663916
  29     -0.010172302613
  30      0.062707270480
  31     -0.146796389272
  32     -0.016668748638
  33      0.060412107841
  34     -0.002517692428
  35     -0.005448814126
  36     -0.059234661700
  37      0.025340134381
  38      0.003266889766
  39     -0.001769854293
  40     -0.003372696714
  41     -0.000186803539
  42     -0.002505545745
  43     -0.010204244854
  44      0.062832580990
  45     -0.146821915970
  46     -0.011300315920
  47     -0.061832788920
  48      0.002242883789
  49     -0.010347966019
  50      0.059006090837
  51     -0.025260088971
  52      0.003321735052
  53      0.001941784529
  54     -0.003167203692
  55     -0.000665023085
  56      0.002484408525
 Ene=   0.10477578297544E+01
 Spin= Alpha
 Occup=    0.000000
   1     -0.000052276885
   2      0.000763585592
   3      0.000167182160
   4      0.000125139707
   5      0.000012887265
   6      0.000015787353
   7     -0.000822970264
   8     -0.000007846950
   9     -0.000084528735
  10     -0.000690814870
  11      0.000000340300
  12     -0.000268370876
  13      0.000235009578
  14      0.000024063235
  15     -0.000039613691
  16      0.000301598619
  17     -0.000491780464
  18     -0.000724491473
  19     -0.000036836754
  20     -0.000167207583
  21      0.001618915418
  22      0.000068841390
  23      0.000242790428
  24     -0.000088228796
  25      0.000007212908
  26     -0.000002207542
  27     -0.000062374516
  28     -0.000005880774
  29      0.000046085371
  30     -0.000202415925
  31      0.000076148737
  32     -0.000956701761
  33     -0.004156775855
  34      0.003213965826
  35      0.000864634418
  36      0.005500762046
  37     -0.004264546413
  38     -0.000164863196
  39     -0.000069636503
  40      0.000097323817
  41     -0.000293043983
  42     -0.000042234794
  43      0.000061660827
  44     -0.000288100182
  45      0.000139908557
  46     -0.001301247014
  47      0.004094819309
  48     -0.003138605135
  49      0.001365267020
  50     -0.005465222493
  51      0.004219639548
  52     -0.000159402671
  53      0.000058888612
  54      0.000101699744
  55     -0.000298412010
  56     -0.000013801805
 Ene=   0.10477578297544E+01
 Spin= Alpha
 Occup=    0.000000
   1     -0.011366543325
   2      0.166006036914
   3      0.036175166827
   4      0.027327706764
   5      0.001607564599
   6      0.000431689411
   7     -0.178701607414
   8     -0.009881525020
   9     -0.000862573213
  10     -0.055442794263
  11      0.004101312414
  12     -0.046550844141
  13      0.105562528116
  14      0.009294278447
  15     -0.008621109943
  16      0.065614626704
  17     -0.106938776188
  18     -0.157671943876
  19     -0.011009507266
  20     -0.001362163711
  21      0.352154930190
  22      0.021218167129
  23      0.002808998746
  24      0.000910746462
  25     -0.000152828562
  26      0.001918725270
  27     -0.001991251004
  28     -0.000048009641
  29      0.011483595068
  30     -0.052166013875
  31      0.022968315581
  32     -0.236944873943
  33     -0.162162937986
  34     -0.139351508625
  35      0.230659499144
  36      0.210423478854
  37      0.182185803074
  38      0.016440566049
  39     -0.009636915763
  40      0.027592546257
  41     -0.033636033468
  42     -0.011971778659
  43      0.011956667819
  44     -0.054596810739
  45      0.024328568628
  46     -0.253764533117
  47      0.143555554955
  48      0.135926226944
  49      0.253811108594
  50     -0.191508589888
  51     -0.179756151734
  52      0.016702995168
  53      0.005963087610
  54      0.028377205624
  55     -0.035389485137
  56      0.005312235718
 Ene=   0.10807713198295E+01
 Spin= Alpha
 Occup=    0.000000
   1     -0.000003301603
   2      0.000074071039
   3      0.000057689597
   4      0.000002826396
   5      0.000124064973
   6      0.000343922485
   7     -0.000121006098
   8      0.002801164387
   9     -0.003334720550
  10     -0.000022951260
  11     -0.000196994873
  12     -0.000024347475
  13      0.000095795081
  14     -0.000496384914
  15      0.000000084746
  16      0.000012387849
  17     -0.000074705655
  18     -0.000035143654
  19     -0.000354363301
  20     -0.001808565986
  21      0.000137207660
  22     -0.000553320622
  23      0.003664621469
  24      0.000005156746
  25      0.000146912635
  26      0.000006718071
  27     -0.000000338037
  28     -0.000030160529
  29     -0.000002791025
  30      0.000129820495
  31     -0.000338464757
  32      0.000573881324
  33      0.002312457386
  34     -0.002092773071
  35     -0.001283915352
  36     -0.002994641565
  37      0.003000589298
  38     -0.000036790490
  39     -0.000174183503
  40     -0.000002714781
  41     -0.000006072182
  42      0.000099801812
  43      0.000012443547
  44     -0.000168926724
  45      0.000337758885
  46     -0.000838240696
  47      0.002226585118
  48     -0.001919843939
  49      0.001573995616
  50     -0.002844203203
  51      0.002775901131
  52      0.000049143961
  53     -0.000172362236
  54      0.000006883084
  55     -0.000026119022
  56      0.000103511218
 Ene=   0.10807713198295E+01
 Spin= Alpha
 Occup=    0.000000
   1      0.000004754620
   2     -0.000283494470
   3     -0.000263518688
   4     -0.005486164607
   5      0.103088673086
   6      0.092833587264
   7      0.001647825880
   8     -0.046475123036
   9     -0.041813304910
  10     -0.002059819601
  11     -0.145953227818
  12     -0.007881510217
  13      0.015257261258
  14     -0.161813187441
  15     -0.000055995456
  16      0.000164691683
  17      0.000804353842
  18      0.025129517305
  19     -0.470932512742
  20     -0.424093870221
  21     -0.035003465164
  22      0.651171067949
  23      0.586406727190
  24      0.000344686292
  25      0.021904407487
  26      0.001190050729
  27     -0.002290632283
  28      0.024286054672
  29     -0.003321730187
  30      0.064575046044
  31     -0.146292463148
  32      0.298219157665
  33      0.125592096348
  34      0.102774709031
  35     -0.611703756807
  36     -0.105386639000
  37     -0.074813073158
  38     -0.006562159985
  39     -0.010991372450
  40     -0.001219185617
  41      0.012435775216
  42     -0.011457569891
  43      0.003180346800
  44     -0.063912031038
  45      0.145053879277
  46     -0.310422662841
  47      0.097469566680
  48      0.098142231176
  49      0.620127676794
  50     -0.049442017136
  51     -0.064659753553
  52      0.006247913929
  53     -0.011535431426
  54     -0.000124871961
  55     -0.009901143759
  56     -0.013510509541
 Ene=   0.11608763341678E+01
 Spin= Alpha
 Occup=    0.000000
   1     -0.000005247053
   2      0.000078155431
   3      0.000202473344
   4      0.000065976126
   5     -0.001513718547
   6     -0.000833456326
   7     -0.000663915300
   8      0.012096607296
   9      0.002128795525
  10     -0.000040157884
  11     -0.000736141395
  12     -0.000063423130
  13      0.000049925528
  14      0.000138803813
  15     -0.000000627632
  16      0.000016911975
  17     -0.000074938451
  18     -0.000262092555
  19      0.004876751006
  20     -0.002548921610
  21      0.000549552275
  22     -0.009679751202
  23      0.002708138323
  24      0.000006466114
  25      0.000235515136
  26      0.000005034244
  27      0.000017576343
  28     -0.000271414218
  29      0.000657718984
  30     -0.004781961513
  31      0.008394168116
  32      0.004301189997
  33      0.004538915118
  34      0.000822985349
  35     -0.008198122595
  36     -0.012592596437
  37     -0.005926295105
  38     -0.000120639564
  39     -0.000249914250
  40     -0.000313804630
  41      0.000101103126
  42     -0.000009389885
  43     -0.000679566914
  44      0.004931927485
  45     -0.008742357124
  46     -0.004814398993
  47      0.004160283089
  48      0.000764058220
  49      0.009407080646
  50     -0.011893943918
  51     -0.005841018243
  52      0.000124828888
  53     -0.000271091263
  54      0.000304173977
  55     -0.000117747479
  56     -0.000021354628
 Ene=   0.11608763341678E+01
 Spin= Alpha
 Occup=    0.000000
   1      0.000086528812
   2     -0.001311552478
   3     -0.003173212150
   4     -0.000782459403
   5      0.027105910925
   6     -0.030193847563
   7      0.016771359455
   8     -0.449028584547
   9      0.499905919955
  10      0.001288499780
  11      0.048926492424
  12      0.002259374510
  13      0.002522363464
  14     -0.044031836279
  15      0.000016683232
  16     -0.000322635254
  17      0.001349441142
  18      0.013098690139
  19     -0.355648598643
  20      0.395763690830
  21     -0.022094768603
  22      0.585445984444
  23     -0.651571665695
  24     -0.000478874175
  25     -0.027362835129
  26     -0.000926808640
  27     -0.001831984597
  28      0.024558095334
  29      0.000179424832
  30     -0.001247049903
  31      0.002823161888
  32      0.006418129021
  33     -0.159883614846
  34      0.178506336003
  35     -0.009205506388
  36      0.262764225136
  37     -0.294089186757
  38      0.007567897376
  39      0.014079021006
  40      0.001292127578
  41      0.005451640723
  42     -0.012157237208
  43      0.000154855451
  44     -0.001068398305
  45      0.002506447997
  46      0.006269786717
  47     -0.160175101429
  48      0.177857996217
  49     -0.008945262889
  50      0.263782857360
  51     -0.292406740744
  52     -0.007334368838
  53      0.014108079334
  54     -0.000528329025
  55     -0.003107009675
  56     -0.013093515505
 Ene=   0.11982939491166E+01
 Spin= Alpha
 Occup=    0.000000
   1     -0.000024811579
   2      0.000598753114
   3      0.001181909377
   4     -0.010101779105
   5      0.189414559754
   6      0.170667767728
   7      0.032893945331
   8     -0.646390044399
   9     -0.583470470800
  10     -0.001092382657
  11     -0.059806642422
  12     -0.003391967152
  13      0.006657723084
  14     -0.066116391041
  15     -0.000027359090
  16      0.000195220955
  17     -0.000368293204
  18      0.015835635190
  19     -0.307969724188
  20     -0.278437276139
  21     -0.029150602875
  22      0.570416118499
  23      0.515460794654
  24      0.000213765236
  25      0.012008181532
  26      0.000638914513
  27     -0.001305177358
  28      0.013216995666
  29     -0.074649859166
  30      0.582717390290
  31     -1.151686210707
  32     -0.306598283170
  33     -0.267619811450
  34     -0.231858298330
  35      0.481585489534
  36      1.014707058726
  37      0.898419708251
  38      0.000979901489
  39      0.004930373413
  40      0.033365626628
  41     -0.009218805619
  42      0.006164272741
  43      0.074517427984
  44     -0.581771825679
  45      1.149213792006
  46      0.332392989129
  47     -0.239443063210
  48     -0.225859889367
  49     -0.585201817894
  50      0.967160240300
  51      0.887989429951
  52     -0.000736272191
  53      0.008071692053
  54     -0.032639250902
  55      0.007750031835
  56      0.008337797519
 Ene=   0.11982939491166E+01
 Spin= Alpha
 Occup=    0.000000
   1      0.000001624326
   2     -0.000049508849
   3     -0.000060235375
   4      0.001102335362
   5     -0.020874239755
   6     -0.017944535285
   7     -0.003807347079
   8      0.076222294729
   9      0.055799758159
  10      0.000121706994
  11      0.005692836110
  12      0.000333320956
  13     -0.000750866226
  14      0.007822989234
  15      0.000003140132
  16     -0.000018870039
  17      0.000028752075
  18     -0.001891610598
  19      0.038297819621
  20      0.024428942181
  21      0.003447548565
  22     -0.069809983065
  23     -0.046470420003
  24     -0.000011467907
  25     -0.000877957256
  26     -0.000054586187
  27      0.000171721822
  28     -0.001801780126
  29      0.008051556596
  30     -0.062861166197
  31      0.124241226957
  32      0.032992967191
  33      0.031610977705
  34      0.022004549159
  35     -0.051851542858
  36     -0.113664610402
  37     -0.092363399898
  38     -0.000233670261
  39     -0.000743110737
  40     -0.003624321198
  41      0.000906946181
  42     -0.000484577395
  43     -0.008049368067
  44      0.062832337789
  45     -0.124115118932
  46     -0.035967755811
  47      0.028241413880
  48      0.021703816790
  49      0.063283713255
  50     -0.108157554169
  51     -0.091670696462
  52      0.000225909848
  53     -0.001083279198
  54      0.003533858077
  55     -0.000767307586
  56     -0.000700664455
 Ene=   0.13849382489321E+01
 Spin= Alpha
 Occup=    0.000000
   1     -0.003341213071
   2      0.046839497572
   3      0.114416225930
   4      0.007843124538
   5      0.000346211180
   6      0.000074528445
   7      0.023565664642
   8      0.001027388980
   9      0.000271467716
  10     -0.006607283079
  11      0.000191393364
  12      0.000613548759
  13      0.011397208067
  14      0.000990015925
  15     -0.006773945284
  16      0.051451921975
  17     -0.137687462815
  18      0.010550463093
  19      0.000449189221
  20      0.000134693945
  21      0.040080362811
  22      0.001773300372
  23      0.000309712066
  24     -0.000414095649
  25      0.000040721573
  26     -0.000705871367
  27      0.000890137354
  28      0.000087058575
  29     -0.005530918978
  30      0.036940076309
  31     -0.061793869270
  32      0.006435190287
  33     -0.004194430548
  34     -0.004267236695
  35     -0.030036746560
  36      0.007502246883
  37      0.007970382134
  38     -0.000316296163
  39     -0.001346835555
  40      0.001719114211
  41      0.000298143500
  42     -0.001433272056
  43     -0.005526921450
  44      0.036906529061
  45     -0.061688175215
  46      0.005956869527
  47      0.004731739516
  48      0.004429100408
  49     -0.029053476143
  50     -0.010075353490
  51     -0.008568076462
  52     -0.000278184635
  53      0.001204857438
  54      0.001858046112
  55      0.000020571144
  56      0.001428228497
 Ene=   0.13849382489321E+01
 Spin= Alpha
 Occup=    0.000000
   1     -0.080562145064
   2      1.129379635939
   3      2.758768858616
   4      0.189093943194
   5      0.008667788779
   6      0.002097287037
   7      0.568148663078
   8      0.026057735947
   9      0.006752853863
  10     -0.160584064206
  11      0.004305330181
  12      0.014625778326
  13      0.274080292156
  14      0.023802293689
  15     -0.163331402885
  16      1.240593302454
  17     -3.319876746017
  18      0.254375123157
  19      0.011272871458
  20      0.002759762185
  21      0.966441714863
  22      0.041805796715
  23      0.007981509162
  24     -0.010260403317
  25      0.001047115869
  26     -0.017051500238
  27      0.021311257225
  28      0.001991585042
  29     -0.133535595896
  30      0.892056581059
  31     -1.493059619918
  32      0.155285429743
  33     -0.104964061450
  34     -0.098882156456
  35     -0.725007997653
  36      0.185786801594
  37      0.188663982568
  38     -0.007931627946
  39     -0.032685375993
  40      0.041466901859
  41      0.007030986443
  42     -0.034397360454
  43     -0.133087655745
  44      0.888509899665
  45     -1.484302815814
  46      0.143505751259
  47      0.118159364851
  48      0.102012714955
  49     -0.699839961989
  50     -0.246484398572
  51     -0.200639173525
  52     -0.006903106050
  53      0.029241007445
  54      0.044720826340
  55      0.000368132543
  56      0.034242393715
 Ene=   0.14707735516978E+01
 Spin= Alpha
 Occup=    0.000000
   1      0.000111543274
   2     -0.001599161628
   3     -0.003263044444
   4     -0.002460348001
   5      0.034016499048
   6      0.030652649825
   7     -0.012617231008
   8      0.163721324769
   9      0.147561816731
  10     -0.000053764710
  11     -0.014656964210
  12     -0.001169646377
  13      0.001419127348
  14     -0.016280107985
  15      0.000460364997
  16     -0.003330829126
  17      0.008459110599
  18     -0.002194455817
  19      0.033504688436
  20      0.030195189669
  21      0.002492724137
  22     -0.088269444094
  23     -0.079439068759
  24     -0.000020182861
  25     -0.006694759145
  26     -0.000388641349
  27      0.000573818455
  28     -0.007429175303
  29     -0.020060520517
  30      0.155849856085
  31     -0.364711729867
  32      0.028362164486
  33      0.005394066294
  34      0.003645757487
  35     -0.128799403134
  36      0.063043726812
  37      0.060915478361
  38     -0.002942960036
  39     -0.002870561282
  40      0.006675847362
  41      0.003895243837
  42     -0.002707652500
  43      0.020119175303
  44     -0.156290604521
  45      0.363893196437
  46     -0.029075530881
  47      0.002185385763
  48      0.003197613623
  49      0.122675509599
  50      0.074419070027
  51      0.062828509063
  52      0.003005503015
  53     -0.002384112974
  54     -0.007052212694
  55     -0.003481833804
  56     -0.003129057393
 Ene=   0.14707735516978E+01
 Spin= Alpha
 Occup=    0.000000
   1     -0.000002765792
   2      0.000042781101
   3      0.000080105714
   4      0.000017598068
   5     -0.000013462038
   6     -0.000037474825
   7      0.000101712929
   8      0.000200115034
   9     -0.000473538308
  10     -0.000004301774
  11     -0.000314062462
  12      0.000001003917
  13     -0.000017526415
  14      0.000304754680
  15     -0.000012171667
  16      0.000087447658
  17     -0.000218624727
  18     -0.000002978221
  19      0.000374608980
  20     -0.000468843976
  21      0.000073248459
  22     -0.000545605737
  23      0.000748552894
  24     -0.000000078151
  25      0.000102902460
  26      0.000004894148
  27      0.000010185679
  28     -0.000081517107
  29      0.000015614123
  30     -0.000120120033
  31      0.000298850402
  32     -0.000024751545
  33      0.000133774840
  34     -0.000160757896
  35      0.000094999511
  36     -0.000204519480
  37      0.000118517974
  38     -0.000037238083
  39      0.000021135427
  40     -0.000008447322
  41     -0.000021553191
  42     -0.000013256252
  43     -0.000015709683
  44      0.000123216404
  45     -0.000269147200
  46      0.000020318754
  47      0.000122288515
  48     -0.000135592375
  49     -0.000101804751
  50     -0.000188649227
  51      0.000101707330
  52      0.000035890938
  53      0.000015001261
  54      0.000011556418
  55      0.000029136043
  56     -0.000010425310
 Ene=   0.15709044609141E+01
 Spin= Alpha
 Occup=    0.000000
   1     -0.000024776178
   2      0.000314370312
   3      0.000279977014
   4     -0.000252746866
   5      0.012066945270
   6     -0.013417251025
   7      0.002613105761
   8     -0.021456004758
   9      0.023927149392
  10     -0.003865626677
  11     -0.237726965416
  12     -0.008283860920
  13     -0.016691948770
  14      0.213295109116
  15     -0.000181220118
  16      0.001244103062
  17     -0.002853227792
  18      0.002015618820
  19     -0.060608114908
  20      0.067395288918
  21      0.001269826522
  22     -0.016135787462
  23      0.018037079267
  24      0.000801841517
  25      0.053388022955
  26      0.001907482552
  27      0.003734452685
  28     -0.047899399061
  29      0.000064791135
  30     -0.000412955677
  31      0.001031824795
  32     -0.000543733805
  33      0.012186846040
  34     -0.013342745539
  35     -0.001072003791
  36      0.037844865054
  37     -0.042598329039
  38     -0.052379764711
  39      0.039142541614
  40     -0.005132520479
  41     -0.027767988946
  42     -0.036886890737
  43      0.000059677674
  44     -0.000376571806
  45      0.000948553982
  46     -0.000515971703
  47      0.011838127921
  48     -0.013391011626
  49     -0.001131831478
  50      0.038421139860
  51     -0.042249798292
  52      0.053533112806
  53      0.037363955698
  54      0.007804805250
  55      0.033177397775
  56     -0.031751701493
 Ene=   0.15709044609141E+01
 Spin= Alpha
 Occup=    0.000000
   1      0.000002565549
   2     -0.000037254528
   3     -0.000033728416
   4     -0.000004079471
   5     -0.000396901997
   6      0.000395165496
   7     -0.000224519700
   8      0.000081244638
   9     -0.001261183165
  10      0.000125145279
  11      0.007289502619
  12      0.000233714313
  13      0.000535515677
  14     -0.006688261625
  15      0.000021405125
  16     -0.000147856109
  17      0.000345953271
  18     -0.000038074829
  19      0.001567389179
  20     -0.002366813280
  21     -0.000136522424
  22      0.001011288542
  23     -0.000095932201
  24     -0.000020665559
  25     -0.001586294509
  26     -0.000058045855
  27     -0.000126119439
  28      0.001557984341
  29      0.000049890213
  30     -0.000356581905
  31      0.000795172627
  32     -0.000112488874
  33     -0.000348189174
  34      0.000443496797
  35      0.000373616047
  36     -0.001281756982
  37      0.001207924259
  38      0.001629486198
  39     -0.001202334363
  40      0.000125346599
  41      0.000853049070
  42      0.001150026563
  43     -0.000065776449
  44      0.000457020109
  45     -0.001041909150
  46      0.000160282967
  47     -0.000303621704
  48      0.000467091322
  49     -0.000322627253
  50     -0.001380117949
  51      0.001151399255
  52     -0.001660783772
  53     -0.001143805606
  54     -0.000200897347
  55     -0.001034414734
  56      0.001001541359
 Ene=   0.15929611947609E+01
 Spin= Alpha
 Occup=    0.000000
   1      0.000055597231
   2     -0.001494453836
   3     -0.000486905584
   4     -0.001081013110
   5     -0.000040908662
   6     -0.000012249636
   7     -0.014901159776
   8     -0.000656085271
   9     -0.000102157594
  10      0.004558313635
  11     -0.000071597396
  12     -0.000650525836
  13      0.002718551305
  14      0.000290311453
  15      0.001153512479
  16     -0.008053308575
  17      0.019937494245
  18      0.001300224481
  19      0.000031671671
  20      0.000046397716
  21     -0.005861832329
  22     -0.000249837247
  23     -0.000079019182
  24      0.000813504381
  25      0.000005767966
  26     -0.000175854283
  27      0.000063944849
  28     -0.000003821427
  29     -0.000634368249
  30      0.004040667956
  31     -0.009244870914
  32      0.000776608067
  33     -0.001013138819
  34     -0.001161947145
  35     -0.001998831542
  36      0.002852168493
  37      0.001196752196
  38     -0.000094871801
  39      0.000372873146
  40      0.000175684958
  41     -0.000416580390
  42     -0.001073742461
  43     -0.000630666365
  44      0.004011109243
  45     -0.009169373921
  46      0.000657702482
  47      0.001069583722
  48      0.001186552535
  49     -0.001694376326
  50     -0.002969817450
  51     -0.001259277478
  52     -0.000085250688
  53     -0.000374665887
  54      0.000162762057
  55     -0.000577891215
  56      0.000963218815
 Ene=   0.15929611947609E+01
 Spin= Alpha
 Occup=    0.000000
   1      0.005851727761
   2     -0.157285983113
   3     -0.051239639808
   4     -0.113742734578
   5     -0.004937148649
   6     -0.001054613294
   7     -1.568214803045
   8     -0.069388569830
   9     -0.014642311350
  10      0.006884114758
  11      0.005408031310
  12     -0.126041029618
  13      0.014358046811
  14      0.002747423055
  15      0.121401291870
  16     -0.847568845764
  17      2.098311727010
  18      0.136782495619
  19      0.005487766980
  20      0.001292935706
  21     -0.616943630556
  22     -0.026463126533
  23     -0.005612365474
  24      0.020922340080
  25      0.000588138333
  26     -0.026443935976
  27     -0.030569975859
  28     -0.002478400316
  29     -0.066605502046
  30      0.423983560520
  31     -0.969759428878
  32      0.081562324425
  33     -0.118856648588
  34     -0.109169250345
  35     -0.206115572858
  36      0.225511945844
  37      0.208745399174
  38      0.017848329099
  39     -0.037366758557
  40      0.019264541594
  41     -0.032528081831
  42     -0.043157088554
  43     -0.066533209186
  44      0.423424870830
  45     -0.968242293207
  46      0.069391539520
  47      0.125117717348
  48      0.110495156662
  49     -0.182447292151
  50     -0.241588531556
  51     -0.211947536586
  52      0.019085493208
  53      0.034325948143
  54      0.023118981371
  55     -0.040114845106
  56      0.036226930866
 Ene=   0.15978519928164E+01
 Spin= Alpha
 Occup=    0.000000
   1     -0.000060402725
   2      0.001683623622
   3     -0.000029576798
   4      0.001390746532
   5      0.000060835469
   6      0.000012557541
   7      0.018082403690
   8      0.000789092960
   9      0.000162573593
  10      0.003380408598
  11     -0.000100137251
  12      0.001416463067
  13      0.001853542043
  14      0.000149618444
  15     -0.001331928499
  16      0.009342003278
  17     -0.023480130037
  18     -0.001411703531
  19     -0.000062237331
  20     -0.000013271781
  21      0.006763169599
  22      0.000297762769
  23      0.000064611269
  24      0.000233670224
  25     -0.000010235054
  26      0.000279183198
  27      0.000612725315
  28      0.000051100536
  29      0.000761021766
  30     -0.004897892071
  31      0.011442180920
  32     -0.000822993264
  33      0.001266283853
  34      0.001328927159
  35      0.002408139384
  36     -0.001860596947
  37     -0.003169293658
  38     -0.000381859184
  39      0.000954254571
  40     -0.000186215532
  41      0.000209022313