 Entering Link 1 = D:\Gaussian16W\G16W\l1.exe PID=     34632.
  
 Copyright (c) 1988,1990,1992,1993,1995,1998,2003,2009,2016,
            Gaussian, Inc.  All Rights Reserved.
  
 This is part of the Gaussian(R) 16 program.  It is based on
 the Gaussian(R) 09 system (copyright 2009, Gaussian, Inc.),
 the Gaussian(R) 03 system (copyright 2003, Gaussian, Inc.),
 the Gaussian(R) 98 system (copyright 1998, Gaussian, Inc.),
 the Gaussian(R) 94 system (copyright 1995, Gaussian, Inc.),
 the Gaussian 92(TM) system (copyright 1992, Gaussian, Inc.),
 the Gaussian 90(TM) system (copyright 1990, Gaussian, Inc.),
 the Gaussian 88(TM) system (copyright 1988, Gaussian, Inc.),
 the Gaussian 86(TM) system (copyright 1986, Carnegie Mellon
 University), and the Gaussian 82(TM) system (copyright 1983,
 Carnegie Mellon University). Gaussian is a federally registered
 trademark of Gaussian, Inc.
  
 This software contains proprietary and confidential information,
 including trade secrets, belonging to Gaussian, Inc.
  
 This software is provided under written license and may be
 used, copied, transmitted, or stored only in accord with that
 written license.
  
 The following legend is applicable only to US Government
 contracts under FAR:
  
                    RESTRICTED RIGHTS LEGEND
  
 Use, reproduction and disclosure by the US Government is
 subject to restrictions as set forth in subparagraphs (a)
 and (c) of the Commercial Computer Software - Restricted
 Rights clause in FAR 52.227-19.
  
 Gaussian, Inc.
 340 Quinnipiac St., Bldg. 40, Wallingford CT 06492
  
  
 ---------------------------------------------------------------
 Warning -- This program may not be used in any manner that
 competes with the business of Gaussian, Inc. or will provide
 assistance to any competitor of Gaussian, Inc.  The licensee
 of this program is prohibited from giving any competitor of
 Gaussian, Inc. access to this program.  By using this program,
 the user acknowledges that Gaussian, Inc. is engaged in the
 business of creating and licensing software in the field of
 computational chemistry and represents and warrants to the
 licensee that it is not a competitor of Gaussian, Inc. and that
 it will not use this program in any manner prohibited above.
 ---------------------------------------------------------------
  

 Cite this work as:
 Gaussian 16, Revision A.03,
 M. J. Frisch, G. W. Trucks, H. B. Schlegel, G. E. Scuseria, 
 M. A. Robb, J. R. Cheeseman, G. Scalmani, V. Barone, 
 G. A. Petersson, H. Nakatsuji, X. Li, M. Caricato, A. V. Marenich, 
 J. Bloino, B. G. Janesko, R. Gomperts, B. Mennucci, H. P. Hratchian, 
 J. V. Ortiz, A. F. Izmaylov, J. L. Sonnenberg, D. Williams-Young, 
 F. Ding, F. Lipparini, F. Egidi, J. Goings, B. Peng, A. Petrone, 
 T. Henderson, D. Ranasinghe, V. G. Zakrzewski, J. Gao, N. Rega, 
 G. Zheng, W. Liang, M. Hada, M. Ehara, K. Toyota, R. Fukuda, 
 J. Hasegawa, M. Ishida, T. Nakajima, Y. Honda, O. Kitao, H. Nakai, 
 T. Vreven, K. Throssell, J. A. Montgomery, Jr., J. E. Peralta, 
 F. Ogliaro, M. J. Bearpark, J. J. Heyd, E. N. Brothers, K. N. Kudin, 
 V. N. Staroverov, T. A. Keith, R. Kobayashi, J. Normand, 
 K. Raghavachari, A. P. Rendell, J. C. Burant, S. S. Iyengar, 
 J. Tomasi, M. Cossi, J. M. Millam, M. Klene, C. Adamo, R. Cammi, 
 J. W. Ochterski, R. L. Martin, K. Morokuma, O. Farkas, 
 J. B. Foresman, and D. J. Fox, Gaussian, Inc., Wallingford CT, 2016.
 
 ******************************************
 Gaussian 16:  EM64W-G16RevA.03 17-Dec-2016
                31-Jan-2025 
 ******************************************
 %mem=1500MB
 %nprocshared=4
 Will use up to    4 processors via shared memory.
 %chk=E:\TRESC\examples\C6H5+\Gaussian\Scratch\C6H5+.chk
 --------------------------------------------------------
 # uhf/gen nosymm iop(3/32=2,3/27=9) int=nobasistransform
 --------------------------------------------------------
 1/38=1,172=1/1;
 2/12=2,15=1,17=6,18=5,40=1/2;
 3/5=7,11=2,25=1,27=9,30=1,32=2,60=-1,116=2/1,2,3;
 4//1;
 5/5=2,38=5/2;
 6/7=2,8=2,9=2,10=2,28=1/1;
 99/5=1,9=1/99;
 -----
 C6H5+
 -----
 Symbolic Z-matrix:
 Charge =  1 Multiplicity = 1
 C                     0.        1.29391   0. 
 C                     1.26894   0.69492   0. 
 C                     1.25319  -0.68704   0. 
 C                     0.       -1.37652   0. 
 C                    -1.25319  -0.68704   0. 
 C                    -1.26894   0.69492   0. 
 H                     2.18617   1.2757    0. 
 H                     2.18026  -1.25246   0. 
 H                     0.       -2.46324   0. 
 H                    -2.18026  -1.25246   0. 
 H                    -2.18617   1.2757    0. 
 
                          Input orientation:                          
 ---------------------------------------------------------------------
 Center     Atomic      Atomic             Coordinates (Angstroms)
 Number     Number       Type             X           Y           Z
 ---------------------------------------------------------------------
      1          6           0        0.000000    1.293908    0.000000
      2          6           0        1.268943    0.694918    0.000000
      3          6           0        1.253191   -0.687042    0.000000
      4          6           0        0.000000   -1.376521    0.000000
      5          6           0       -1.253191   -0.687042    0.000000
      6          6           0       -1.268943    0.694918    0.000000
      7          1           0        2.186169    1.275699    0.000000
      8          1           0        2.180259   -1.252462    0.000000
      9          1           0        0.000000   -2.463236    0.000000
     10          1           0       -2.180259   -1.252462    0.000000
     11          1           0       -2.186169    1.275699    0.000000
 ---------------------------------------------------------------------
                    Distance matrix (angstroms):
                    1          2          3          4          5
     1  C    0.000000
     2  C    1.403213   0.000000
     3  C    2.344067   1.382049   0.000000
     4  C    2.670429   2.429213   1.430339   0.000000
     5  C    2.344067   2.875930   2.506381   1.430339   0.000000
     6  C    1.403213   2.537886   2.875930   2.429213   1.382049
     7  H    2.186245   1.085638   2.173200   3.437093   3.959993
     8  H    3.352242   2.150066   1.085889   2.183785   3.479695
     9  H    3.757144   3.403550   2.173787   1.086715   2.173787
    10  H    3.352242   3.960970   3.479695   2.183785   1.085889
    11  H    2.186245   3.503585   3.959993   3.437093   2.173200
                    6          7          8          9         10
     6  C    0.000000
     7  H    3.503585   0.000000
     8  H    3.960970   2.528168   0.000000
     9  H    3.403550   4.331162   2.493893   0.000000
    10  H    2.150066   5.045522   4.360517   2.493893   0.000000
    11  H    1.085638   4.372338   5.045522   4.331162   2.528168
                   11
    11  H    0.000000
 Symmetry turned off by external request.
 Stoichiometry    C6H5(1+)
 Framework group  C2V[C2(HCC),SGV(C4H4)]
 Deg. of freedom    10
 Full point group                 C2V     NOp   4
 Rotational constants (GHZ):           6.4653207           5.2890584           2.9091676
 General basis read from cards:  (5D, 7F)
   109 basis functions,   185 primitive gaussians,   115 cartesian basis functions
    20 alpha electrons       20 beta electrons
       nuclear repulsion energy       192.8502372901 Hartrees.
 NAtoms=   11 NActive=   11 NUniq=   11 SFac= 1.00D+00 NAtFMM=   60 NAOKFM=F Big=F
 Integral buffers will be    131072 words long.
 Raffenetti 2 integral format.
 Two-electron integral symmetry is turned off.
 One-electron integrals computed using PRISM.
 NBasis=   109 RedAO= F EigKep=  0.00D+00  NBF=   109
 NBsUse=   109 1.00D-04 EigRej=  0.00D+00 NBFU=   109
 GSVD:  LWork=      -11409 too small for GESVD, short by       59696 words or       59696 for optimal perf.
 ExpMin= 1.22D-01 ExpMax= 1.24D+03 ExpMxC= 1.86D+02 IAcc=3 IRadAn=         5 AccDes= 0.00D+00
 Harris functional with IExCor=  205 and IRadAn=       5 diagonalized for initial guess.
 HarFok:  IExCor=  205 AccDes= 0.00D+00 IRadAn=         5 IDoV= 1 UseB2=F ITyADJ=14
 ICtDFT=  3500011 ScaDFX=  1.000000  1.000000  1.000000  1.000000
 FoFCou: FMM=F IPFlag=           0 FMFlag=      100000 FMFlg1=           0
         NFxFlg=           0 DoJE=T BraDBF=F KetDBF=T FulRan=T
         wScrn=  0.000000 ICntrl=       500 IOpCl=  0 I1Cent=   200000004 NGrid=           0
         NMat0=    1 NMatS0=      1 NMatT0=    0 NMatD0=    1 NMtDS0=    0 NMtDT0=    0
 Symmetry not used in FoFCou.
 Initial guess <Sx>= 0.0000 <Sy>= 0.0000 <Sz>= 0.0000 <S**2>= 0.0000 S= 0.0000
 Keep R1 and R2 ints in memory in canonical form, NReq=36843000.
 Requested convergence on RMS density matrix=1.00D-08 within 128 cycles.
 Requested convergence on MAX density matrix=1.00D-06.
 Requested convergence on             energy=1.00D-06.
 No special actions if energy rises.
 GSVD:  LWork=      -12753 too small for GESVD, short by       61040 words or       61040 for optimal perf.
 SCF Done:  E(UHF) =  -229.544603904     A.U. after   14 cycles
            NFock= 14  Conv=0.19D-08     -V/T= 1.9934
 <Sx>= 0.0000 <Sy>= 0.0000 <Sz>= 0.0000 <S**2>= 0.0000 S= 0.0000
 <L.S>= 0.000000000000E+00
 Annihilation of the first spin contaminant:
 S**2 before annihilation     0.0000,   after     0.0000

 **********************************************************************

            Population analysis using the SCF density.

 **********************************************************************

 Alpha  occ. eigenvalues --  -11.59800 -11.49869 -11.49867 -11.46332 -11.46315
 Alpha  occ. eigenvalues --  -11.46127  -1.38403  -1.25565  -1.21681  -1.05309
 Alpha  occ. eigenvalues --   -1.02952  -0.92169  -0.87040  -0.83951  -0.83351
 Alpha  occ. eigenvalues --   -0.75488  -0.75327  -0.73295  -0.57489  -0.57383
 Alpha virt. eigenvalues --   -0.23935  -0.11139  -0.08880   0.01835   0.04617
 Alpha virt. eigenvalues --    0.06446   0.09018   0.11130   0.11678   0.19883
 Alpha virt. eigenvalues --    0.23743   0.26106   0.26290   0.29705   0.37119
 Alpha virt. eigenvalues --    0.38754   0.39037   0.41166   0.45269   0.47389
 Alpha virt. eigenvalues --    0.49645   0.50836   0.53620   0.53775   0.54964
 Alpha virt. eigenvalues --    0.60656   0.62386   0.63089   0.66523   0.69628
 Alpha virt. eigenvalues --    0.69743   0.69809   0.72038   0.75640   0.76478
 Alpha virt. eigenvalues --    0.77327   0.78841   0.80885   0.87647   0.93317
 Alpha virt. eigenvalues --    1.05070   1.16232   1.20393   1.23692   1.27241
 Alpha virt. eigenvalues --    1.31182   1.33114   1.33807   1.48566   1.54612
 Alpha virt. eigenvalues --    1.66827   1.69534   1.75321   1.77685   1.79400
 Alpha virt. eigenvalues --    1.79445   1.80898   1.83834   1.84494   1.85047
 Alpha virt. eigenvalues --    1.88604   1.96542   2.04260   2.04543   2.05891
 Alpha virt. eigenvalues --    2.09359   2.11847   2.19935   2.22267   2.23758
 Alpha virt. eigenvalues --    2.29006   2.37331   2.39220   2.39475   2.40247
 Alpha virt. eigenvalues --    2.47262   2.62010   2.67264   2.70563   2.71995
 Alpha virt. eigenvalues --    2.85330   2.87640   2.90918   2.96195   2.98137
 Alpha virt. eigenvalues --    3.13393   3.29069   3.31532   3.71937
  Beta  occ. eigenvalues --  -11.59800 -11.49869 -11.49867 -11.46332 -11.46315
  Beta  occ. eigenvalues --  -11.46127  -1.38403  -1.25565  -1.21681  -1.05309
  Beta  occ. eigenvalues --   -1.02952  -0.92169  -0.87040  -0.83951  -0.83351
  Beta  occ. eigenvalues --   -0.75488  -0.75327  -0.73295  -0.57489  -0.57383
  Beta virt. eigenvalues --   -0.23935  -0.11139  -0.08880   0.01835   0.04617
  Beta virt. eigenvalues --    0.06446   0.09018   0.11130   0.11678   0.19883
  Beta virt. eigenvalues --    0.23743   0.26106   0.26290   0.29705   0.37119
  Beta virt. eigenvalues --    0.38754   0.39037   0.41166   0.45269   0.47389
  Beta virt. eigenvalues --    0.49645   0.50836   0.53620   0.53775   0.54964
  Beta virt. eigenvalues --    0.60656   0.62386   0.63089   0.66523   0.69628
  Beta virt. eigenvalues --    0.69743   0.69809   0.72038   0.75640   0.76478
  Beta virt. eigenvalues --    0.77327   0.78841   0.80885   0.87647   0.93317
  Beta virt. eigenvalues --    1.05070   1.16232   1.20393   1.23692   1.27241
  Beta virt. eigenvalues --    1.31182   1.33114   1.33807   1.48566   1.54612
  Beta virt. eigenvalues --    1.66827   1.69534   1.75321   1.77685   1.79400
  Beta virt. eigenvalues --    1.79445   1.80898   1.83834   1.84494   1.85047
  Beta virt. eigenvalues --    1.88604   1.96542   2.04260   2.04543   2.05891
  Beta virt. eigenvalues --    2.09359   2.11847   2.19935   2.22267   2.23758
  Beta virt. eigenvalues --    2.29006   2.37331   2.39220   2.39475   2.40247
  Beta virt. eigenvalues --    2.47262   2.62010   2.67264   2.70563   2.71995
  Beta virt. eigenvalues --    2.85330   2.87640   2.90918   2.96195   2.98137
  Beta virt. eigenvalues --    3.13393   3.29069   3.31532   3.71937
          Condensed to atoms (all electrons):
               1          2          3          4          5          6
     1  C    4.888310   0.519112  -0.055173  -0.030154  -0.055173   0.519112
     2  C    0.519112   4.743930   0.532757  -0.072461  -0.014354  -0.050578
     3  C   -0.055173   0.532757   4.778964   0.539065  -0.060381  -0.014354
     4  C   -0.030154  -0.072461   0.539065   4.763715   0.539065  -0.072461
     5  C   -0.055173  -0.014354  -0.060381   0.539065   4.778964   0.532757
     6  C    0.519112  -0.050578  -0.014354  -0.072461   0.532757   4.743930
     7  H   -0.018275   0.396633  -0.002075   0.002279  -0.000077   0.001617
     8  H    0.001996  -0.016521   0.410454  -0.011680   0.002357  -0.000009
     9  H    0.000353   0.003111  -0.016820   0.411891  -0.016820   0.003111
    10  H    0.001996  -0.000009   0.002357  -0.011680   0.410454  -0.016521
    11  H   -0.018275   0.001617  -0.000077   0.002279  -0.002075   0.396633
               7          8          9         10         11
     1  C   -0.018275   0.001996   0.000353   0.001996  -0.018275
     2  C    0.396633  -0.016521   0.003111  -0.000009   0.001617
     3  C   -0.002075   0.410454  -0.016820   0.002357  -0.000077
     4  C    0.002279  -0.011680   0.411891  -0.011680   0.002279
     5  C   -0.000077   0.002357  -0.016820   0.410454  -0.002075
     6  C    0.001617  -0.000009   0.003111  -0.016521   0.396633
     7  H    0.382754  -0.003319  -0.000040   0.000003  -0.000037
     8  H   -0.003319   0.398324  -0.002584  -0.000059   0.000003
     9  H   -0.000040  -0.002584   0.413968  -0.002584  -0.000040
    10  H    0.000003  -0.000059  -0.002584   0.398324  -0.003319
    11  H   -0.000037   0.000003  -0.000040  -0.003319   0.382754
          Atomic-Atomic Spin Densities.
               1          2          3          4          5          6
     1  C    0.000000   0.000000   0.000000   0.000000   0.000000   0.000000
     2  C    0.000000   0.000000   0.000000   0.000000   0.000000   0.000000
     3  C    0.000000   0.000000   0.000000   0.000000   0.000000   0.000000
     4  C    0.000000   0.000000   0.000000   0.000000   0.000000   0.000000
     5  C    0.000000   0.000000   0.000000   0.000000   0.000000   0.000000
     6  C    0.000000   0.000000   0.000000   0.000000   0.000000   0.000000
     7  H    0.000000   0.000000   0.000000   0.000000   0.000000   0.000000
     8  H    0.000000   0.000000   0.000000   0.000000   0.000000   0.000000
     9  H    0.000000   0.000000   0.000000   0.000000   0.000000   0.000000
    10  H    0.000000   0.000000   0.000000   0.000000   0.000000   0.000000
    11  H    0.000000   0.000000   0.000000   0.000000   0.000000   0.000000
               7          8          9         10         11
     1  C    0.000000   0.000000   0.000000   0.000000   0.000000
     2  C    0.000000   0.000000   0.000000   0.000000   0.000000
     3  C    0.000000   0.000000   0.000000   0.000000   0.000000
     4  C    0.000000   0.000000   0.000000   0.000000   0.000000
     5  C    0.000000   0.000000   0.000000   0.000000   0.000000
     6  C    0.000000   0.000000   0.000000   0.000000   0.000000
     7  H    0.000000   0.000000   0.000000   0.000000   0.000000
     8  H    0.000000   0.000000   0.000000   0.000000   0.000000
     9  H    0.000000   0.000000   0.000000   0.000000   0.000000
    10  H    0.000000   0.000000   0.000000   0.000000   0.000000
    11  H    0.000000   0.000000   0.000000   0.000000   0.000000
 Mulliken charges and spin densities:
               1          2
     1  C    0.246169   0.000000
     2  C   -0.043239   0.000000
     3  C   -0.114716   0.000000
     4  C   -0.059860   0.000000
     5  C   -0.114716   0.000000
     6  C   -0.043239   0.000000
     7  H    0.240535   0.000000
     8  H    0.221039   0.000000
     9  H    0.206453   0.000000
    10  H    0.221039   0.000000
    11  H    0.240535   0.000000
 Sum of Mulliken charges =   1.00000   0.00000
 Mulliken charges and spin densities with hydrogens summed into heavy atoms:
               1          2
     1  C    0.246169   0.000000
     2  C    0.197296   0.000000
     3  C    0.106322   0.000000
     4  C    0.146593   0.000000
     5  C    0.106322   0.000000
     6  C    0.197296   0.000000
 Electronic spatial extent (au):  <R**2>=            422.5960
 Charge=              1.0000 electrons
 Dipole moment (field-independent basis, Debye):
    X=              0.0000    Y=              1.6475    Z=              0.0000  Tot=              1.6475
 Quadrupole moment (field-independent basis, Debye-Ang):
   XX=            -19.0924   YY=            -18.9678   ZZ=            -37.6950
   XY=              0.0000   XZ=              0.0000   YZ=              0.0000
 Traceless Quadrupole moment (field-independent basis, Debye-Ang):
   XX=              6.1594   YY=              6.2840   ZZ=            -12.4433
   XY=              0.0000   XZ=              0.0000   YZ=              0.0000
 Octapole moment (field-independent basis, Debye-Ang**2):
  XXX=              0.0000  YYY=              8.0199  ZZZ=              0.0000  XYY=              0.0000
  XXY=              4.1085  XXZ=              0.0000  XZZ=              0.0000  YZZ=              2.1844
  YYZ=              0.0000  XYZ=              0.0000
 Hexadecapole moment (field-independent basis, Debye-Ang**3):
 XXXX=           -212.5715 YYYY=           -179.6586 ZZZZ=            -42.3007 XXXY=              0.0000
 XXXZ=              0.0000 YYYX=              0.0000 YYYZ=              0.0000 ZZZX=              0.0000
 ZZZY=              0.0000 XXYY=            -61.6467 XXZZ=            -61.6060 YYZZ=            -51.7581
 XXYZ=              0.0000 YYXZ=              0.0000 ZZXY=              0.0000
 N-N= 1.928502372901D+02 E-N=-9.122990366373D+02  KE= 2.310636021732D+02
                          Isotropic Fermi Contact Couplings
        Atom                 a.u.       MegaHertz       Gauss      10(-4) cm-1
     1  C(13)              0.00000       0.00000       0.00000       0.00000
     2  C(13)              0.00000       0.00000       0.00000       0.00000
     3  C(13)              0.00000       0.00000       0.00000       0.00000
     4  C(13)              0.00000       0.00000       0.00000       0.00000
     5  C(13)              0.00000       0.00000       0.00000       0.00000
     6  C(13)              0.00000       0.00000       0.00000       0.00000
     7  H(1)               0.00000       0.00000       0.00000       0.00000
     8  H(1)               0.00000       0.00000       0.00000       0.00000
     9  H(1)               0.00000       0.00000       0.00000       0.00000
    10  H(1)               0.00000       0.00000       0.00000       0.00000
    11  H(1)               0.00000       0.00000       0.00000       0.00000
 --------------------------------------------------------
       Center         ----  Spin Dipole Couplings  ----
                      3XX-RR        3YY-RR        3ZZ-RR
 --------------------------------------------------------
     1   Atom        0.000000      0.000000      0.000000
     2   Atom        0.000000      0.000000      0.000000
     3   Atom        0.000000      0.000000      0.000000
     4   Atom        0.000000      0.000000      0.000000
     5   Atom        0.000000      0.000000      0.000000
     6   Atom        0.000000      0.000000      0.000000
     7   Atom        0.000000      0.000000      0.000000
     8   Atom        0.000000      0.000000      0.000000
     9   Atom        0.000000      0.000000      0.000000
    10   Atom        0.000000      0.000000      0.000000
    11   Atom        0.000000      0.000000      0.000000
 --------------------------------------------------------
                        XY            XZ            YZ
 --------------------------------------------------------
     1   Atom        0.000000      0.000000      0.000000
     2   Atom        0.000000      0.000000      0.000000
     3   Atom        0.000000      0.000000      0.000000
     4   Atom        0.000000      0.000000      0.000000
     5   Atom        0.000000      0.000000      0.000000
     6   Atom        0.000000      0.000000      0.000000
     7   Atom        0.000000      0.000000      0.000000
     8   Atom        0.000000      0.000000      0.000000
     9   Atom        0.000000      0.000000      0.000000
    10   Atom        0.000000      0.000000      0.000000
    11   Atom        0.000000      0.000000      0.000000
 --------------------------------------------------------


 ---------------------------------------------------------------------------------
              Anisotropic Spin Dipole Couplings in Principal Axis System
 ---------------------------------------------------------------------------------

       Atom             a.u.   MegaHertz   Gauss  10(-4) cm-1        Axes

              Baa     0.0000     0.000     0.000     0.000  1.0000  0.0000  0.0000
     1 C(13)  Bbb     0.0000     0.000     0.000     0.000  0.0000  1.0000  0.0000
              Bcc     0.0000     0.000     0.000     0.000  0.0000  0.0000  1.0000
 
              Baa     0.0000     0.000     0.000     0.000  1.0000  0.0000  0.0000
     2 C(13)  Bbb     0.0000     0.000     0.000     0.000  0.0000  1.0000  0.0000
              Bcc     0.0000     0.000     0.000     0.000  0.0000  0.0000  1.0000
 
              Baa     0.0000     0.000     0.000     0.000  1.0000  0.0000  0.0000
     3 C(13)  Bbb     0.0000     0.000     0.000     0.000  0.0000  1.0000  0.0000
              Bcc     0.0000     0.000     0.000     0.000  0.0000  0.0000  1.0000
 
              Baa     0.0000     0.000     0.000     0.000  1.0000  0.0000  0.0000
     4 C(13)  Bbb     0.0000     0.000     0.000     0.000  0.0000  1.0000  0.0000
              Bcc     0.0000     0.000     0.000     0.000  0.0000  0.0000  1.0000
 
              Baa     0.0000     0.000     0.000     0.000  1.0000  0.0000  0.0000
     5 C(13)  Bbb     0.0000     0.000     0.000     0.000  0.0000  1.0000  0.0000
              Bcc     0.0000     0.000     0.000     0.000  0.0000  0.0000  1.0000
 
              Baa     0.0000     0.000     0.000     0.000  1.0000  0.0000  0.0000
     6 C(13)  Bbb     0.0000     0.000     0.000     0.000  0.0000  1.0000  0.0000
              Bcc     0.0000     0.000     0.000     0.000  0.0000  0.0000  1.0000
 
              Baa     0.0000     0.000     0.000     0.000  1.0000  0.0000  0.0000
     7 H(1)   Bbb     0.0000     0.000     0.000     0.000  0.0000  1.0000  0.0000
              Bcc     0.0000     0.000     0.000     0.000  0.0000  0.0000  1.0000
 
              Baa     0.0000     0.000     0.000     0.000  1.0000  0.0000  0.0000
     8 H(1)   Bbb     0.0000     0.000     0.000     0.000  0.0000  1.0000  0.0000
              Bcc     0.0000     0.000     0.000     0.000  0.0000  0.0000  1.0000
 
              Baa     0.0000     0.000     0.000     0.000  1.0000  0.0000  0.0000
     9 H(1)   Bbb     0.0000     0.000     0.000     0.000  0.0000  1.0000  0.0000
              Bcc     0.0000     0.000     0.000     0.000  0.0000  0.0000  1.0000
 
              Baa     0.0000     0.000     0.000     0.000  1.0000  0.0000  0.0000
    10 H(1)   Bbb     0.0000     0.000     0.000     0.000  0.0000  1.0000  0.0000
              Bcc     0.0000     0.000     0.000     0.000  0.0000  0.0000  1.0000
 
              Baa     0.0000     0.000     0.000     0.000  1.0000  0.0000  0.0000
    11 H(1)   Bbb     0.0000     0.000     0.000     0.000  0.0000  1.0000  0.0000
              Bcc     0.0000     0.000     0.000     0.000  0.0000  0.0000  1.0000
 

 ---------------------------------------------------------------------------------


 Test job not archived.
 1|1|UNPC-BATCOMPUTER|SP|UHF|Gen|C6H5(1+)|DELL|31-Jan-2025|0||# uhf/gen
  nosymm iop(3/32=2,3/27=9) int=nobasistransform||C6H5+||1,1|C,0,0.,1.2
 9390795,0.|C,0,1.26894294,0.69491769,0.|C,0,1.25319073,-0.68704191,0.|
 C,0,0.,-1.37652121,0.|C,0,-1.25319073,-0.68704191,0.|C,0,-1.26894294,0
 .69491769,0.|H,0,2.18616903,1.27569862,0.|H,0,2.18025862,-1.25246238,0
 .|H,0,0.,-2.46323577,0.|H,0,-2.18025862,-1.25246238,0.|H,0,-2.18616903
 ,1.27569862,0.||Version=EM64W-G16RevA.03|HF=-229.5446039|S2=0.|S2-1=0.
 |S2A=0.|RMSD=1.856e-009|Dipole=0.,0.7780396,0.|Quadrupole=4.5793296,4.
 6719647,-9.2512943,0.,0.,0.|PG=C02V [C2(H1C1C1),SGV(C4H4)]||@


 ... THIS SEEMS PLAINLY ABSURD; BUT WHOEVER WISHES TO BECOME A 
 PHILOSOPHER MUST LEARN NOT TO BE FRIGHTENED BY ABSURDITIES.

                          -- BERTRAND RUSSELL
 Job cpu time:       0 days  0 hours  0 minutes  8.0 seconds.
 Elapsed time:       0 days  0 hours  0 minutes  6.7 seconds.
 File lengths (MBytes):  RWF=     10 Int=      0 D2E=      0 Chk=      2 Scr=      1
 Normal termination of Gaussian 16 at Fri Jan 31 12:04:48 2025.
