[Molden Format]
[Atoms] (AU)
C    1    6           0.4878016481         0.0218760928         0.0048319231
O    2    8           2.6954228858         0.1186045188         0.0251961791
O    3    8          -1.5874196712         1.0202952241         0.9651480993
O    4    8          -1.4739707685        -1.1553120289        -0.9939693729
[GTO]
  1 0
 s    5  1.00
     1238.4016938000         0.0054568832
      186.2900499200         0.0406384092
       42.2511763460         0.1802559389
       11.6765579320         0.4631512175
        3.5930506482         0.4408717331
 s    1  1.00
        0.4024514736         1.0000000000
 s    1  1.00
        0.1309018267         1.0000000000
 p    3  1.00
        9.4680970621         0.0383878717
        2.0103545142         0.2111702511
        0.5477100471         0.5132817211
 p    1  1.00
        0.1526861379         1.0000000000
 d    1  1.00
        0.8000000000         1.0000000000

  2 0
 s    5  1.00
     2266.1767785000        -0.0053431810
      340.8701019100        -0.0398900392
       77.3631351670        -0.1785391199
       21.4796449400        -0.4642768496
        6.6589433124        -0.4430974517
 s    1  1.00
        0.8097597567         1.0000000000
 s    1  1.00
        0.2553077223         1.0000000000
 p    3  1.00
       17.7215043170         0.0433945732
        3.8635505440         0.2309412077
        1.0480920883         0.5137531106
 p    1  1.00
        0.2764154441         1.0000000000
 d    1  1.00
        1.2000000000         1.0000000000

  3 0
 s    5  1.00
     2266.1767785000        -0.0053431810
      340.8701019100        -0.0398900392
       77.3631351670        -0.1785391199
       21.4796449400        -0.4642768496
        6.6589433124        -0.4430974517
 s    1  1.00
        0.8097597567         1.0000000000
 s    1  1.00
        0.2553077223         1.0000000000
 p    3  1.00
       17.7215043170         0.0433945732
        3.8635505440         0.2309412077
        1.0480920883         0.5137531106
 p    1  1.00
        0.2764154441         1.0000000000
 d    1  1.00
        1.2000000000         1.0000000000

  4 0
 s    5  1.00
     2266.1767785000        -0.0053431810
      340.8701019100        -0.0398900392
       77.3631351670        -0.1785391199
       21.4796449400        -0.4642768496
        6.6589433124        -0.4430974517
 s    1  1.00
        0.8097597567         1.0000000000
 s    1  1.00
        0.2553077223         1.0000000000
 p    3  1.00
       17.7215043170         0.0433945732
        3.8635505440         0.2309412077
        1.0480920883         0.5137531106
 p    1  1.00
        0.2764154441         1.0000000000
 d    1  1.00
        1.2000000000         1.0000000000

[5D7F]
[9G]

[MO]
 Sym= A
 Ene=        -1.9357439356e+01
 Spin= Alpha
 Occup=         1.0000000000e+00
  1         3.1545724200e-04
  2         9.2556844536e-04
  3         1.3055176445e-02
  4        -6.1124763298e-04
  5         1.1169599449e-04
  6         1.1890346347e-04
  7        -1.4168783553e-02
  8         1.3229089134e-03
  9         1.6180752144e-03
 10         6.0496575969e-04
 11         4.5565837061e-04
 12         9.9559077466e-06
 13        -1.0783476612e-03
 14         4.3510126253e-04
 15         3.0095365651e-04
 16        -5.7891687613e-04
 17         5.6912876520e-03
 18        -3.0767257462e-04
 19         3.6533982719e-05
 20         4.2189384868e-05
 21        -4.6186568956e-04
 22        -7.9306206694e-04
 23        -6.9958680786e-04
 24        -9.9690947425e-05
 25         1.9675002401e-04
 26         8.9042545070e-05
 27         1.3997239755e-04
 28         2.3169993425e-04
 29        -9.1219643238e-01
 30         3.8034509597e-02
 31        -2.8458740719e-02
 32         1.7406192127e-03
 33        -1.5524252814e-03
 34        -1.4482054242e-03
 35        -5.4343672470e-03
 36         3.3049431589e-03
 37         3.1353912174e-03
 38        -6.1411818207e-07
 39         1.0871734505e-05
 40         4.2603820343e-06
 41        -5.9003627078e-07
 42         1.2227210930e-05
 43        -3.8186308811e-01
 44         1.6399986304e-02
 45        -1.3258485548e-02
 46         5.8452072955e-04
 47         9.9408998625e-04
 48         8.7590473614e-04
 49        -2.9697649700e-03
 50        -9.4875293579e-04
 51        -7.6293731118e-04
 52         7.9809454995e-05
 53        -1.5146427294e-04
 54         2.4230727980e-04
 55        -1.7960047800e-04
 56        -1.7171797905e-04
 Sym= A
 Ene=        -1.9357301451e+01
 Spin= Alpha
 Occup=         1.0000000000e+00
  1         1.2839815117e-04
  2         3.7884625777e-04
  3         5.3482283658e-03
  4        -2.3116754070e-04
  5        -3.5024206250e-04
  6        -3.0784156817e-04
  7        -5.5066105729e-03
  8        -4.9885091720e-03
  9        -4.3175521255e-03
 10         2.2459964645e-04
 11        -1.1601342466e-03
 12        -6.7627213968e-05
 13        -2.9532042124e-04
 14        -1.3145266134e-03
 15         1.2334513959e-04
 16        -2.3641779142e-04
 17         2.3231189328e-03
 18        -1.1774325000e-04
 19        -1.2759761819e-04
 20        -1.1112062992e-04
 21        -3.0210482256e-04
 22         1.8736599260e-03
 23         1.6931282320e-03
 24        -4.9512763649e-05
 25        -4.8015528130e-04
 26         6.1261352094e-06
 27         1.1657048669e-04
 28        -5.2675126866e-04
 29         3.8201173909e-01
 30        -1.5242924596e-02
 31         9.9862951568e-03
 32        -7.8889782830e-04
 33         2.3885740493e-04
 34         2.3860855262e-04
 35         1.1599805190e-03
 36        -2.3816573770e-03
 37        -2.1760304212e-03
 38         1.2032023562e-04
 39         1.6406274274e-04
 40         3.6253895270e-04
 41        -2.9672809005e-04
 42         1.7629888010e-04
 43        -9.1225981813e-01
 44         3.7542236426e-02
 45        -2.7067775704e-02
 46         1.6407527207e-03
 47         1.4091773672e-03
 48         1.2170374920e-03
 49        -4.1971365111e-03
 50        -4.4049937363e-03
 51        -3.8326293793e-03
 52        -8.1655378875e-05
 53         1.3630916814e-04
 54        -2.4260894138e-04
 55         1.8388437539e-04
 56         1.5511605512e-04
 Sym= A
 Ene=        -1.9270235675e+01
 Spin= Alpha
 Occup=         1.0000000000e+00
  1         3.8214487680e-04
  2         1.8658612002e-03
  3         7.9591172305e-03
  4        -9.7348474081e-04
  5        -4.3189225934e-05
  6        -9.4843433014e-06
  7         1.7278965835e-02
  8         7.5592254832e-04
  9         1.5807627766e-04
 10         1.3790910074e-03
 11        -3.8627638335e-05
 12        -1.0868218088e-04
 13        -2.3573832666e-03
 14        -2.0553725247e-04
 15        -9.8871562141e-01
 16         4.2720349583e-02
 17        -3.4877516794e-02
 18        -3.4886169679e-03
 19        -1.5287790866e-04
 20        -3.2252337307e-05
 21         7.1975572985e-03
 22         3.1569783600e-04
 23         6.6814303553e-05
 24        -3.6339772293e-04
 25         1.1275489635e-05
 26         8.3246308187e-06
 27         6.2546423386e-04
 28         5.4885862544e-05
 29        -2.9190591530e-04
 30        -4.8581233047e-04
 31         5.1744099310e-03
 32         2.0359469542e-04
 33         2.8534627927e-05
 34         1.9541811365e-05
 35        -1.6836314058e-04
 36        -1.1594931914e-03
 37        -1.0376431200e-03
 38         1.5518465470e-04
 39        -2.3757118971e-04
 40         6.0030634716e-05
 41        -2.6489842708e-04
 42        -2.8010072812e-04
 43        -2.9190027359e-04
 44        -4.8425417458e-04
 45         5.1609155481e-03
 46         2.0512434313e-04
 47        -1.1334720715e-05
 48        -1.6343590447e-05
 49        -2.9083888968e-04
 50         1.1382488119e-03
 51         1.0315368021e-03
 52         1.6254560651e-04
 53         2.1981344339e-04
 54         8.4100992978e-05
 55        -3.1388483718e-04
 56         2.2689392490e-04
 Sym= A
 Ene=        -1.0460862356e+01
 Spin= Alpha
 Occup=         1.0000000000e+00
  1         9.8834441362e-01
  2         4.8193145283e-02
  3        -1.9182466639e-03
  4        -7.9772250866e-04
  5        -3.3590629577e-05
  6        -5.6675285579e-06
  7         2.6043055240e-03
  8         1.1492910285e-04
  9         2.5328155239e-05
 10        -2.5442038754e-03
 11         2.0850344289e-05
 12         1.2790511619e-03
 13         4.1212231682e-03
 14         3.4851526187e-04
 15         2.5522394979e-04
 16         6.9199300095e-05
 17        -1.1794287297e-02
 18         1.4331398514e-03
 19         6.2987689173e-05
 20         1.3458748610e-05
 21         8.2181810718e-03
 22         3.5996279875e-04
 23         7.5583855833e-05
 24         4.2590441751e-04
 25        -1.1045241352e-05
 26        -6.4051877326e-05
 27        -7.2156713331e-04
 28        -6.3070589736e-05
 29        -9.4012432485e-05
 30         7.0293822780e-05
 31        -4.4112924799e-03
 32        -9.8829636793e-04
 33         5.0318259987e-04
 34         4.8228025454e-04
 35        -4.7026576203e-03
 36         1.7009561963e-03
 37         1.6711995384e-03
 38         4.5968948405e-04
 39         1.1163871832e-03
 40        -5.3905009195e-04
 41        -7.5441119147e-04
 42         1.1722295767e-03
 43        -9.4248885422e-05
 44         7.4079088456e-05
 45        -4.3993668347e-03
 46        -9.2853901801e-04
 47        -5.8611080558e-04
 48        -4.9870957681e-04
 49        -4.4959195186e-03
 50        -2.1026538203e-03
 51        -1.7541758464e-03
 52         4.2451203404e-04
 53        -1.0904348667e-03
 54        -6.5939961255e-04
 55        -5.1850470095e-04
 56        -1.2741512862e-03
 Sym= A
 Ene=        -1.3026172613e+00
 Spin= Alpha
 Occup=         1.0000000000e+00
  1         1.4343716494e-01
  2        -2.8230218117e-01
  3         1.5983638681e-02
  4         1.4345462994e-01
  5         6.2327178635e-03
  6         1.2575270182e-03
  7        -2.7219245195e-02
  8        -1.2012268748e-03
  9        -2.5567487705e-04
 10         1.6906315640e-02
 11        -1.5906371781e-04
 12        -8.0782532296e-03
 13        -2.7474304207e-02
 14        -2.3314167629e-03
 15        -3.5249899726e-02
 16        -6.8168625967e-02
 17        -1.6678403793e-02
 18         2.8273145049e-02
 19         1.2351451970e-03
 20         2.5621864051e-04
 21         3.2199987160e-03
 22         1.4493631396e-04
 23         3.1566956942e-05
 24         6.2990890539e-04
 25        -3.7333737332e-05
 26         3.9014841310e-04
 27        -1.1696005495e-03
 28        -1.0642333223e-04
 29        -1.7247039958e-01
 30        -3.3982923414e-01
 31        -1.9383725707e-01
 32        -7.4170784051e-02
 33         8.5236754352e-02
 34         7.8865939921e-02
 35        -2.4664182101e-02
 36         2.9761422969e-02
 37         2.7499772080e-02
 38        -1.0559459034e-04
 39         5.6517186560e-03
 40        -1.4656323748e-02
 41         2.9413879036e-03
 42         5.9429444767e-03
 43        -1.7224067491e-01
 44        -3.3937628163e-01
 45        -1.9363532019e-01
 46        -6.4767187163e-02
 47        -9.1291677080e-02
 48        -8.0102550212e-02
 49        -2.1424406596e-02
 50        -3.1790347124e-02
 51        -2.7928031662e-02
 52        -2.7333622087e-04
 53        -4.2618434795e-03
 54        -1.5194896938e-02
 55         4.0170926828e-03
 56        -5.0456230775e-03
 Sym= A
 Ene=        -1.1404328024e+00
 Spin= Alpha
 Occup=         1.0000000000e+00
  1         1.2013475983e-01
  2        -2.4227656402e-01
  3        -2.4446975954e-02
  4        -2.7196608809e-01
  5        -1.1900960002e-02
  6        -2.4898570825e-03
  7        -2.5312391062e-02
  8        -1.1047243341e-03
  9        -2.2880206019e-04
 10         1.0755275119e-02
 11        -4.3414939958e-04
 12         1.8555586014e-03
 13        -1.8955288408e-02
 14        -1.6862962490e-03
 15        -2.5545968357e-01
 16        -5.0704967880e-01
 17        -2.3252758795e-01
 18         1.7953682682e-01
 19         7.8657679452e-03
 20         1.6560540687e-03
 21         2.4757956852e-02
 22         1.0811013448e-03
 23         2.2520820708e-04
 24         8.2535272554e-03
 25        -3.1897267814e-04
 26         1.2065366833e-03
 27        -1.4500478963e-02
 28        -1.2839046111e-03
 29         4.0454582521e-02
 30         8.3376714919e-02
 31         3.9896775533e-02
 32        -7.0786641871e-04
 33        -2.5182547378e-02
 34        -2.2617402663e-02
 35        -2.5339073437e-03
 36        -7.6179539270e-03
 37        -6.7715453405e-03
 38         1.4628113288e-03
 39        -5.0500439760e-04
 40         4.6689549792e-03
 41        -3.4940762572e-03
 42        -6.2261648081e-04
 43         4.0383394742e-02
 44         8.3229147338e-02
 45         3.9848979888e-02
 46        -3.3696748644e-03
 47         2.4981843265e-02
 48         2.2556637162e-02
 49        -3.3142560128e-03
 50         7.3629713912e-03
 51         6.7186368702e-03
 52         1.4706964285e-03
 53        -2.3131587132e-05
 54         4.6929265158e-03
 55        -3.5461386707e-03
 56        -8.8566393615e-05
 Sym= A
 Ene=        -9.8333194802e-01
 Spin= Alpha
 Occup=         1.0000000000e+00
  1        -6.0208920734e-05
  2         1.2206202749e-04
  3         2.8645434978e-05
  4        -8.1719363943e-03
  5         1.5462730267e-01
  6         1.3924398033e-01
  7        -6.5719743849e-04
  8         1.1567058887e-02
  9         1.0417681089e-02
 10        -3.8224960289e-04
 11        -2.3796318842e-02
 12        -1.2914008153e-03
 13         2.5465229922e-03
 14        -2.6379088683e-02
 15         4.3710726494e-06
 16         4.8388886937e-06
 17         4.2572390407e-05
 18        -1.1961094171e-03
 19         2.2918092222e-02
 20         2.0637596582e-02
 21        -4.5860353218e-04
 22         8.5984362065e-03
 23         7.7431321032e-03
 24        -6.6793267276e-05
 25        -4.1368043307e-03
 26        -2.2379729283e-04
 27         4.4207763571e-04
 28        -4.5858249760e-03
 29         2.1314034902e-01
 30         4.4250240111e-01
 31         3.0217980970e-01
 32         8.9820429542e-02
 33         1.4674135846e-02
 34         1.0471320564e-02
 35         3.8235544286e-02
 36         2.6386731332e-03
 37         1.2140047223e-03
 38        -3.7609442140e-03
 39        -2.5434164400e-03
 40        -8.4427659806e-04
 41         6.8523314657e-03
 42        -2.4020557299e-03
 43        -2.1339434127e-01
 44        -4.4300371814e-01
 45        -3.0266334699e-01
 46        -9.0767078785e-02
 47         6.5581576610e-03
 48         8.6433352945e-03
 49        -3.8332354063e-02
 50        -8.4042839558e-04
 51         4.0539337261e-04
 52         3.6652107683e-03
 53        -2.8461706990e-03
 54         5.1567001371e-04
 55        -6.2519544471e-03
 56        -3.5722599654e-03
 Sym= A
 Ene=        -6.4972314278e-01
 Spin= Alpha
 Occup=         1.0000000000e+00
  1         1.5608109506e-01
  2        -3.8905408780e-01
  3        -4.9050399374e-02
  4         1.8892932463e-01
  5         8.2467948550e-03
  6         1.7050891857e-03
  7         7.6267278558e-03
  8         3.5464928297e-04
  9         9.3717776715e-05
 10         5.5313216421e-03
 11         1.8520764168e-04
 12        -7.9465495846e-03
 13        -7.8683137334e-03
 14        -6.2182690998e-04
 15         6.9846169375e-02
 16         1.4670937102e-01
 17         1.3690823156e-01
 18         7.9385965441e-02
 19         3.4789881223e-03
 20         7.3116828498e-04
 21         3.8888834844e-02
 22         1.7023121088e-03
 23         3.5492134184e-04
 24         1.7581574514e-03
 25        -4.9090405654e-05
 26        -1.6908549134e-04
 27        -2.9987870994e-03
 28        -2.6291904099e-04
 29         1.0243700514e-01
 30         2.1196737736e-01
 31         2.2860334739e-01
 32        -3.0997886274e-01
 33         6.8129415399e-02
 34         7.0632193783e-02
 35        -1.5765798293e-01
 36         2.3336954130e-02
 37         2.5753427087e-02
 38         4.5279483378e-03
 39         1.2404995726e-02
 40         1.0159469607e-03
 41        -8.8820752028e-03
 42         1.3254430748e-02
 43         1.0221783407e-01
 44         2.1149466030e-01
 45         2.2806968220e-01
 46        -3.0095799158e-01
 47        -9.4747147433e-02
 48        -7.6052867503e-02
 49        -1.5429812089e-01
 50        -3.6960288321e-02
 51        -2.8550303275e-02
 52         4.1156072409e-03
 53        -1.2697636518e-02
 54        -3.3769852051e-04
 55        -6.1805840704e-03
 56        -1.4571392307e-02
 Sym= A
 Ene=        -5.8286736643e-01
 Spin= Alpha
 Occup=         1.0000000000e+00
  1         3.5279141717e-06
  2        -7.0077957794e-06
  3        -9.2224503840e-06
  4         8.1951531486e-03
  5        -2.4383609919e-01
  6         2.7125544341e-01
  7         3.1496264133e-03
  8        -9.3515932212e-02
  9         1.0403217444e-01
 10        -2.2007216387e-04
 11        -1.4868316796e-02
 12        -5.2938601339e-04
 13        -1.0284111659e-03
 14         1.3342392854e-02
 15        -1.6892764055e-06
 16        -2.1271566313e-06
 17        -1.0438795308e-05
 18         4.6674803582e-03
 19        -1.3927910601e-01
 20         1.5494024316e-01
 21         2.3505749488e-03
 22        -7.0090981188e-02
 23         7.7972408765e-02
 24        -2.2281899267e-04
 25        -1.3948259551e-02
 26        -4.9526699701e-04
 27        -9.6895648212e-04
 28         1.2516525111e-02
 29        -2.4416553841e-06
 30        -5.0209342076e-06
 31        -4.2725066342e-06
 32         7.3884053289e-03
 33        -2.1934578667e-01
 34         2.4399217884e-01
 35         4.3567387841e-03
 36        -1.2935137481e-01
 37         1.4388608613e-01
 38        -1.6302510890e-02
 39         1.0495799481e-02
 40        -1.6460163014e-03
 41        -8.7600999160e-03
 42        -9.9977490532e-03
 43        -2.4471275519e-06
 44        -5.0326804402e-06
 45        -4.2854746129e-06
 46         7.3754812208e-03
 47        -2.1897277689e-01
 48         2.4361715638e-01
 49         4.3494313661e-03
 50        -1.2914050394e-01
 51         1.4367425998e-01
 52         1.6618475047e-02
 53         9.9447365818e-03
 54         2.3748072013e-03
 55         1.0178513184e-02
 56        -8.3447901374e-03
 Sym= A
 Ene=        -5.5597058290e-01
 Spin= Alpha
 Occup=         1.0000000000e+00
  1         6.5921676455e-02
  2        -1.5326334261e-01
  3        -1.0471732500e-01
  4        -2.2521183474e-01
  5        -1.0868509482e-02
  6        -2.9677726102e-03
  7         5.4900963483e-02
  8         2.1530129512e-03
  9         2.7485518070e-04
 10        -1.2339801356e-02
 11         9.7217158178e-04
 12        -1.2016068640e-02
 13         2.3834344023e-02
 14         2.2378428651e-03
 15         1.1861216243e-01
 16         2.4626606520e-01
 17         2.6576904612e-01
 18         3.3388325676e-01
 19         1.4014337918e-02
 20         2.5282596894e-03
 21         1.6236667031e-01
 22         6.7674015308e-03
 23         1.1885310293e-03
 24         9.8194885613e-03
 25        -2.2722175640e-04
 26        -9.3047036224e-04
 27        -1.6754939851e-02
 28        -1.4129044482e-03
 29        -4.7341469304e-02
 30        -1.0321980928e-01
 31        -7.0306727178e-02
 32        -3.9417490305e-02
 33        -2.2917254719e-01
 34        -2.0482662354e-01
 35        -2.1612375335e-02
 36        -1.3744143777e-01
 37        -1.2290294178e-01
 38         5.7356355838e-03
 39        -3.6818495468e-03
 40         1.6037492208e-02
 41        -1.3098775108e-02
 42        -4.3817619424e-03
 43        -4.7905567562e-02
 44        -1.0438977693e-01
 45        -7.1702461413e-02
 46        -6.1277919965e-02
 47         2.2508577459e-01
 48         2.0417419173e-01
 49        -3.4870365581e-02
 50         1.3515185010e-01
 51         1.2253626258e-01
 52         5.7845739656e-03
 53         1.8453305119e-03
 54         1.6335823451e-02
 55        -1.3623635751e-02
 56         1.7497226057e-03
 Sym= A
 Ene=        -5.4208152711e-01
 Spin= Alpha
 Occup=         1.0000000000e+00
  1         3.6985354447e-04
  2        -8.8197109463e-04
  3        -2.8780236091e-04
  4        -1.6179263211e-02
  5         2.8843225913e-01
  6         2.5976544402e-01
  7        -3.8987270088e-03
  8         7.8557995999e-02
  9         7.0734912489e-02
 10        -7.1841173924e-05
 11        -3.8470952330e-03
 12        -2.1949972632e-04
 13         4.3424424148e-04
 14        -4.2634979301e-03
 15         5.8163319101e-04
 16         1.2177200765e-03
 17         1.3342154077e-03
 18        -8.4549981166e-03
 19         1.9764176801e-01
 20         1.7791908730e-01
 21        -4.9676306509e-03
 22         1.1290559573e-01
 23         1.0164289486e-01
 24        -1.6416172034e-04
 25        -1.3204151210e-02
 26        -7.1696736999e-04
 27         1.3268788537e-03
 28        -1.4643117076e-02
 29        -7.6205373485e-02
 30        -1.5919530231e-01
 31        -1.8605849342e-01
 32         3.0618456977e-01
 33        -6.4119742924e-02
 34        -6.6905473406e-02
 35         1.6284525982e-01
 36        -4.0374904094e-02
 37        -4.1222250679e-02
 38        -5.8951588657e-03
 39        -4.3220436546e-03
 40         4.6936329516e-04
 41         1.0379354509e-02
 42        -4.0960296648e-03
 43         7.6125643509e-02
 44         1.5903251693e-01
 45         1.8596496479e-01
 46        -2.9796198784e-01
 47        -9.0069139443e-02
 48        -7.1945980834e-02
 49        -1.5790501381e-01
 50        -5.4103529298e-02
 51        -4.3855298165e-02
 52         5.7632945722e-03
 53        -4.6237342730e-03
 54        -9.1040917918e-04
 55        -9.4518198763e-03
 56        -5.8210295335e-03
 Sym= A
 Ene=        -5.0137419100e-01
 Spin= Alpha
 Occup=         1.0000000000e+00
  1         5.1315728687e-02
  2        -1.2159403559e-01
  3         6.7999646689e-02
  4        -2.2159526768e-01
  5        -1.0260520834e-02
  6        -2.5198023308e-03
  7         1.1135511016e-02
  8         2.7062521811e-04
  9        -8.2996360672e-05
 10         1.4037110657e-02
 11        -1.3275746595e-03
 12         1.8719423071e-02
 13        -2.8180118427e-02
 14        -2.6754532863e-03
 15         8.0626718644e-02
 16         1.7286623824e-01
 17         1.8449136282e-01
 18         3.7507404046e-01
 19         1.5885009680e-02
 20         2.9866766653e-03
 21         2.0174239451e-01
 22         8.5173015139e-03
 23         1.5832242862e-03
 24         7.7249945830e-03
 25        -2.1784939604e-04
 26         2.4124935689e-05
 27        -1.3340588908e-02
 28        -1.1367042746e-03
 29         2.8941154547e-02
 30         6.8621879056e-02
 31         4.6925519789e-02
 32         2.0253267516e-01
 33         2.0747240588e-01
 34         1.8037427194e-01
 35         1.1398005874e-01
 36         1.3306807538e-01
 37         1.1616785851e-01
 38        -5.8170243514e-03
 39        -1.9726820374e-03
 40        -1.4383686789e-02
 41         1.3268217717e-02
 42        -1.8418271647e-03
 43         2.8741420641e-02
 44         6.8200699058e-02
 45         4.6441856247e-02
 46         2.2430004530e-01
 47        -1.8839791597e-01
 48        -1.7613791619e-01
 49         1.2793209966e-01
 50        -1.2218492169e-01
 51        -1.1370490470e-01
 52        -5.7463977312e-03
 53         3.6683132508e-03
 54        -1.4073117659e-02
 55         1.2698938920e-02
 56         4.4139152723e-03
 Sym= A
 Ene=        -4.1707024363e-01
 Spin= Alpha
 Occup=         1.0000000000e+00
  1         1.3736364168e-06
  2        -4.7358447586e-06
  3        -1.0065971556e-06
  4         4.3513803396e-03
  5        -1.2934737256e-01
  6         1.4389271962e-01
  7         2.0392591794e-03
  8        -6.1470817396e-02
  9         6.8381663477e-02
 10         7.0595079208e-04
 11         4.4536834029e-02
 12         1.5829523444e-03
 13         3.0979829127e-03
 14        -3.9964900853e-02
 15        -6.1815679008e-07
 16        -2.8492321784e-06
 17         1.2282385567e-05
 18         1.1381387404e-02
 19        -3.3970959591e-01
 20         3.7790784906e-01
 21         7.6140475828e-03
 22        -2.2727706371e-01
 23         2.5283294260e-01
 24        -2.8375347783e-04
 25        -1.7798448976e-02
 26        -6.3189984014e-04
 27        -1.2366877285e-03
 28         1.5971468502e-02
 29        -2.2224819646e-07
 30         4.6567449504e-07
 31        -1.2638337508e-05
 32        -5.8378829049e-03
 33         1.7319342170e-01
 34        -1.9266833116e-01
 35        -4.3657567620e-03
 36         1.2950093253e-01
 37        -1.4405961196e-01
 38         8.7103276833e-03
 39        -1.7531589518e-03
 40         1.0097101019e-03
 41         4.9134916621e-03
 42         1.8801191764e-03
 43        -2.2146144833e-07
 44         4.6530040906e-07
 45        -1.2619985133e-05
 46        -5.8327147115e-03
 47         1.7304078336e-01
 48        -1.9250186916e-01
 49        -4.3615642909e-03
 50         1.2937888909e-01
 51        -1.4393278184e-01
 52        -8.7609411645e-03
 53        -1.4697157154e-03
 54        -1.1244488715e-03
 55        -5.1379146678e-03
 56         1.0118891087e-03
 Sym= A
 Ene=        -3.7041474654e-01
 Spin= Alpha
 Occup=         1.0000000000e+00
  1        -2.3602446357e-05
  2         4.0190321566e-05
  3        -8.6920683601e-05
  4        -6.7270394784e-04
  5         1.2920382316e-02
  6         1.1634639568e-02
  7         3.9191378815e-03
  8        -7.5950555467e-02
  9        -6.8391593456e-02
 10        -8.0267418176e-04
 11        -4.8412117282e-02
 12        -2.6410539414e-03
 13         5.1792693949e-03
 14        -5.3667723954e-02
 15         2.5559999171e-06
 16         3.8379865712e-06
 17         3.5507958997e-05
 18         2.1228147105e-02
 19        -4.0950514882e-01
 20        -3.6875234653e-01
 21         1.4113425078e-02
 22        -2.7231047093e-01
 23        -2.4521082105e-01
 24         2.0097498511e-04
 25         1.2710628878e-02
 26         6.8538578717e-04
 27        -1.3512993863e-03
 28         1.4090657974e-02
 29        -1.9345983814e-03
 30        -5.3647096852e-03
 31         4.4244541272e-02
 32         2.7223873960e-01
 33        -4.9302237198e-02
 34        -5.2948947224e-02
 35         1.9458282192e-01
 36        -3.9962200652e-02
 37        -4.2092194465e-02
 38        -2.2947361185e-03
 39        -1.9853551962e-03
 40        -6.7595908536e-04
 41         4.2500210972e-03
 42        -1.9379949926e-03
 43         1.9428925348e-03
 44         5.3758807658e-03
 45        -4.4263095055e-02
 46        -2.6628832127e-01
 47        -7.3353271950e-02
 48        -5.7487472974e-02
 49        -1.8987087981e-01
 50        -5.7154909325e-02
 51        -4.5350028872e-02
 52         2.2382286723e-03
 53        -2.1856531352e-03
 54         4.5010036939e-04
 55        -3.8092461342e-03
 56        -2.6859412391e-03
 Sym= A
 Ene=        -3.6815845677e-01
 Spin= Alpha
 Occup=         1.0000000000e+00
  1        -1.2960543195e-08
  2         2.1208041988e-08
  3        -5.3479330600e-08
  4         8.8420991185e-07
  5        -2.9624815944e-05
  6         4.5045573369e-05
  7         1.1585458356e-06
  8        -9.2567415805e-06
  9        -8.4516190937e-05
 10         3.0316239733e-02
 11        -5.2827099768e-04
 12         3.7014514465e-03
 13         1.7443993450e-02
 14         1.4832642061e-03
 15         2.1915943633e-09
 16         3.5911187693e-09
 17         2.5838399317e-08
 18         9.9032606183e-06
 19        -1.6511460920e-04
 20        -2.9594370799e-04
 21         6.6400481090e-06
 22        -1.1217869280e-04
 23        -1.9166162026e-04
 24         7.3237541926e-04
 25        -2.0228324037e-06
 26         8.9929906334e-05
 27         4.2062523110e-04
 28         4.2527130597e-05
 29        -5.7529227841e-07
 30        -1.9722431081e-06
 31         2.8126820161e-05
 32         1.1442252347e-02
 33        -3.3511539098e-01
 34         3.7273822877e-01
 35         8.1872466344e-03
 36        -2.3976834476e-01
 37         2.6668155221e-01
 38        -4.5797133079e-03
 39         1.0063324491e-02
 40        -2.2313191857e-04
 41        -2.0266349206e-03
 42        -9.1988221955e-03
 43         5.8051138275e-07
 44         1.9795849795e-06
 45        -2.8134356041e-05
 46        -1.1451315040e-02
 47         3.3541586487e-01
 48        -3.7321499680e-01
 49        -8.1937109648e-03
 50         2.3998500814e-01
 51        -2.6703498222e-01
 52        -4.9193172974e-03
 53        -9.9076553374e-03
 54        -9.3719191303e-04
 55        -3.4377358520e-03
 56         8.7204437744e-03
 Sym= A
 Ene=        -1.2258878589e-01
 Spin= Alpha
 Occup=         0.0000000000e+00
  1        -6.7476980525e-06
  2         1.8566352653e-05
  3        -1.6915646538e-04
  4        -4.1372359778e-03
  5         7.8145629172e-02
  6         7.0371449954e-02
  7         4.6206232728e-03
  8        -8.8707502242e-02
  9        -7.9880249784e-02
 10        -2.2984468773e-04
 11        -1.3022232792e-02
 12        -7.3765874395e-04
 13         1.4357606443e-03
 14        -1.4433938140e-02
 15         1.4798306763e-05
 16         2.8484389961e-05
 17         7.8394309798e-05
 18        -6.1179001072e-04
 19         9.6836039100e-03
 20         8.7232085765e-03
 21        -1.3931876360e-03
 22         2.4836908630e-02
 23         2.2368378666e-02
 24        -3.8239436685e-05
 25        -2.4158911366e-03
 26        -1.3112913956e-04
 27         2.5690444548e-04
 28        -2.6782203282e-03
 29         5.8076837640e-02
 30         1.3955526330e-01
 31         2.3898308528e-01
 32        -1.3542084978e-01
 33        -3.8476401714e-01
 34        -3.4177040806e-01
 35        -9.3548891132e-02
 36        -3.4515524154e-01
 37        -3.0743268962e-01
 38        -9.6321709994e-04
 39        -8.7385300730e-03
 40        -4.8415735295e-03
 41         3.2932863001e-03
 42        -9.6917879149e-03
 43        -5.8047607389e-02
 44        -1.3946853954e-01
 45        -2.3893797032e-01
 46         1.7486779851e-01
 47        -3.7126565617e-01
 48        -3.3902917868e-01
 49         1.2900931049e-01
 50        -3.3552549769e-01
 51        -3.0551402429e-01
 52         6.8034973081e-04
 53        -9.1812465442e-03