[Molden Format]
[Title]
generated by TRESC, real part2 of MOs of job CO3
 
[Atoms] AU
 C   1   6    0.3364484192    5.8882927452    0.3891081484
 O   2   8    2.6974300312    5.9862747024    0.4085979628
 O   3   8   -0.7714112401    7.4618585764    1.8371371576
 O   4   8   -0.6184572465    4.2284969646   -1.0743142370
[GTO]
  1 0
 s  5 1.0
     1238.4016938000        0.0059599745
      186.2900499200        0.0422621111
       42.2511763500        0.1866575214
       11.6765579300        0.4675815865
        3.5930506500        0.4422897287
 s  1 1.0
        0.4024514700        1.0000000000
 s  1 1.0
        0.1309018300        1.0000000000
 p  3 1.0
        9.4680970600        0.0570294585
        2.0103545100        0.3130471495
        0.5477100500        0.7605135301
 p  1 1.0
        0.1526861400        1.0000000000
 d  1 1.0
        0.8000000000        1.0000000000
 
  2 0
 s  5 1.0
     2266.1767785000        0.0060711540
      340.8701019100        0.0417308970
       77.3631351700        0.1850777598
       21.4796449400        0.4668774046
        6.6589433100        0.4435718061
 s  1 1.0
        0.8097597600        1.0000000000
 s  1 1.0
        0.2553077200        1.0000000000
 p  3 1.0
       17.7215043200        0.0628680198
        3.8635505400        0.3334973703
        1.0480920900        0.7412421661
 p  1 1.0
        0.2764154400        1.0000000000
 d  1 1.0
        1.2000000000        1.0000000000
 
  3 0
 s  5 1.0
     2266.1767785000        0.0060711540
      340.8701019100        0.0417308970
       77.3631351700        0.1850777598
       21.4796449400        0.4668774046
        6.6589433100        0.4435718061
 s  1 1.0
        0.8097597600        1.0000000000
 s  1 1.0
        0.2553077200        1.0000000000
 p  3 1.0
       17.7215043200        0.0628680198
        3.8635505400        0.3334973703
        1.0480920900        0.7412421661
 p  1 1.0
        0.2764154400        1.0000000000
 d  1 1.0
        1.2000000000        1.0000000000
 
  4 0
 s  5 1.0
     2266.1767785000        0.0060711540
      340.8701019100        0.0417308970
       77.3631351700        0.1850777598
       21.4796449400        0.4668774046
        6.6589433100        0.4435718061
 s  1 1.0
        0.8097597600        1.0000000000
 s  1 1.0
        0.2553077200        1.0000000000
 p  3 1.0
       17.7215043200        0.0628680198
        3.8635505400        0.3334973703
        1.0480920900        0.7412421661
 p  1 1.0
        0.2764154400        1.0000000000
 d  1 1.0
        1.2000000000        1.0000000000
 
[5D]
[7F]
[9G]
[MO]
 Ene=   0.93273403769228E+00
 Spin= Alpha
 Occup=    0.000000
   1      0.000005458182
   2     -0.001728566578
   3     -0.000489583601
   4     -0.000026363493
   5     -0.000465952470
   6     -0.000043399787
   7      0.000073971729
   8      0.001650416444
   9      0.000124009148
  10      0.000558766801
  11      0.000016801420
  12     -0.000255821605
  13     -0.000836244806
  14     -0.000043655284
  15     -0.000477746755
  16      0.002246436867
  17     -0.002038238990
  18      0.000036528810
  19      0.003100709571
  20      0.000132592666
  21     -0.000106323524
  22     -0.004446049218
  23     -0.000249766870
  24     -0.000013805462
  25     -0.000009123450
  26     -0.000020193006
  27     -0.000062940931
  28     -0.000015726909
  29     -0.000032113230
  30      0.000135923593
  31      0.000401698376
  32      0.001151433441
  33     -0.000356306312
  34     -0.000705686993
  35     -0.001679010795
  36     -0.000452091268
  37      0.000418806146
  38     -0.000055569376
  39     -0.000064946259
  40     -0.000066106510
  41      0.000058218236
  42     -0.000073028486
  43      0.000000940612
  44     -0.000021153074
  45      0.000590381528
  46     -0.001083130235
  47     -0.000168402143
  48      0.000760032593
  49      0.001551992782
  50     -0.000713703695
  51     -0.000583777349
  52     -0.000053787455
  53      0.000075360155
  54     -0.000053961373
  55      0.000044221457
  56      0.000086201035
 Ene=   0.93447523046664E+00
 Spin= Alpha
 Occup=    0.000000
   1     -0.000000104170
   2      0.000024555407
   3      0.000023648380
   4      0.000449476182
   5     -0.000028254730
   6      0.000464830389
   7      0.000033589682
   8     -0.000012654990
   9      0.000462294112
  10     -0.001417857751
  11     -0.000545442017
  12     -0.000187406440
  13     -0.000760521026
  14     -0.000695298714
  15     -0.000001899823
  16      0.000009289269
  17     -0.000015775739
  18      0.002095837772
  19     -0.000132962306
  20      0.002845648374
  21     -0.002419191796
  22      0.000155173314
  23     -0.003389308985
  24      0.001615845462
  25     -0.000011220743
  26      0.000198075271
  27      0.000928880500
  28      0.000082620273
  29      0.000458055705
  30     -0.002172925826
  31      0.001482520016
  32     -0.042422706116
  33     -0.000646955595
  34      0.034411048781
  35      0.050090128151
  36      0.001698598457
  37     -0.039185601643
  38      0.001078003134
  39      0.000012499980
  40      0.000231307921
  41      0.000373555005
  42      0.000127907619
  43     -0.000452099667
  44      0.002149831313
  45     -0.001491224313
  46      0.038726596885
  47      0.000867818443
  48     -0.038530648327
  49     -0.044221289710
  50     -0.002047459419
  51      0.045470763450
  52      0.000880388903
  53      0.000095288267
  54      0.000013379934
  55      0.000741962749
  56      0.000099429653
 Ene=   0.99688313069138E+00
 Spin= Alpha
 Occup=    0.000000
   1     -0.000189668028
   2      0.002333986508
   3      0.005871963776
   4     -0.163931854148
   5      0.007963725256
   6     -0.182081548886
   7      0.790407234888
   8     -0.036569443263
   9      0.877977500895
  10      0.002358865942
  11      0.170249422444
  12      0.009169667977
  13     -0.017587775550
  14      0.188747563977
  15     -0.000285514907
  16      0.001934439066
  17     -0.007239381679
  18      0.388375399545
  19     -0.020694060807
  20      0.431297778106
  21     -0.778963273772
  22      0.042701685272
  23     -0.865029089493
  24     -0.000661202558
  25     -0.052665684980
  26     -0.002904529863
  27      0.005237614174
  28     -0.058404486516
  29     -0.006440638258
  30     -0.000931857029
  31     -0.386014121194
  32      0.222279526283
  33     -0.025844675707
  34      0.248026699875
  35     -0.414767822811
  36      0.014072677430
  37     -0.462959796125
  38      0.002388223261
  39      0.005519929367
  40     -0.038197903547
  41      0.003743594279
  42      0.005033462070
  43      0.006265981577
  44      0.002645072349
  45      0.381839150173
  46      0.224946377140
  47      0.006737479467
  48      0.248811968399
  49     -0.418589317557
  50      0.021404474812
  51     -0.462848271596
  52     -0.002192657885
  53      0.002680036174
  54      0.038552229632
  55     -0.004570868258
  56      0.004057579761
 Ene=   0.10031455008697E+01
 Spin= Alpha
 Occup=    0.000000
   1      0.000016995999
   2      0.000236444180
   3     -0.001146990911
   4      0.000015940549
   5      0.000587594398
   6      0.000073412076
   7      0.000135561191
   8     -0.003662352924
   9     -0.000588706238
  10     -0.000281930273
  11     -0.000029877204
  12      0.000043369931
  13      0.000278873111
  14     -0.000014107150
  15     -0.000118168649
  16      0.000686390542
  17      0.001032208365
  18      0.000021752003
  19     -0.000198730761
  20     -0.000182839306
  21     -0.000055073090
  22      0.000876235887
  23      0.000393136440
  24     -0.000006483939
  25     -0.000001980411
  26      0.000154360141
  27      0.000110379386
  28      0.000026085420
  29      0.000279011222
  30     -0.001529851647
  31      0.001288528894
  32     -0.002267087250
  33     -0.001536698788
  34      0.000187893425
  35      0.002455500560
  36      0.002963706612
  37     -0.000030338864
  38      0.000065526509
  39      0.000064885795
  40      0.000013935596
  41     -0.000042907261
  42      0.000075882290
  43      0.000273506285
  44     -0.001513917820
  45      0.001131212594
  46      0.002429256663
  47     -0.001572210448
  48     -0.000640980878
  49     -0.002779359059
  50      0.002997860565
  51      0.000898899678
  52      0.000085147551
  53     -0.000063813132
  54     -0.000003442318
  55     -0.000016292754
  56     -0.000087941718
 Ene=   0.10344696181201E+01
 Spin= Alpha
 Occup=    0.000000
   1     -0.000000921901
   2      0.000014259148
   3      0.000022919240
   4     -0.000569647884
   5      0.000061846726
   6     -0.001196581498
   7     -0.000678361928
   8     -0.000367174955
   9      0.008458879596
  10      0.000009438068
  11      0.001089424714
  12      0.000055289147
  13     -0.000107498781
  14      0.001197292449
  15     -0.000005357131
  16      0.000034015638
  17     -0.000044125364
  18      0.000482077930
  19     -0.000178733393
  20      0.004289784329
  21     -0.001166741296
  22      0.000374765173
  23     -0.008349775325
  24     -0.000003502735
  25     -0.000276853786
  26     -0.000014862725
  27      0.000049756805
  28     -0.000546545027
  29     -0.000143872670
  30      0.000516355226
  31     -0.002257319242
  32     -0.000902096345
  33     -0.001495346618
  34      0.002848468845
  35      0.001784964075
  36      0.001834244226
  37     -0.005446370365
  38      0.000179594500
  39      0.000005429917
  40     -0.000160029713
  41      0.000070075886
  42      0.000084363644
  43      0.000148821251
  44     -0.000541183120
  45      0.002261184812
  46     -0.000794195830
  47      0.001237272865
  48      0.002933976463
  49      0.001660994561
  50     -0.001351051043
  51     -0.005550547012
  52     -0.000175499233
  53     -0.000004562593
  54      0.000160832331
  55     -0.000084137126
  56      0.000068177420
 Ene=   0.10607181811674E+01
 Spin= Alpha
 Occup=    0.000000
   1      0.013390779975
   2     -0.189024171179
   3     -0.764074887699
   4      0.001216957971
   5      0.228530461290
   6      0.008719697974
   7     -0.008562321553
   8     -0.979182324924
   9     -0.038804397087
  10     -0.085306638576
  11      0.007933965788
  12     -0.121426463709
  13      0.172917508172
  14      0.015539963094
  15      0.001681982132
  16      0.013859986278
  17      0.521364231583
  18     -0.000868564769
  19     -0.110176811006
  20     -0.004204677553
  21      0.001861575126
  22      0.302729386575
  23      0.011024579986
  24     -0.019015415254
  25     -0.001593681241
  26      0.046238338605
  27      0.023077798671
  28      0.001393828919
  29      0.057668565746
  30     -0.390493117657
  31      0.584215079240
  32     -0.109487274901
  33     -0.528370921981
  34     -0.137790585750
  35      0.023468452111
  36      1.030718044724
  37      0.057428485583
  38      0.013491062126
  39      0.028460983495
  40      0.007256032350
  41     -0.026599821218
  42      0.030235648500
  43      0.057148645661
  44     -0.387053578983
  45      0.578554770428
  46      0.101917839386
  47     -0.543323963456
  48      0.096911342279
  49     -0.009620426525
  50      1.035951232310
  51      0.020744751601
  52      0.012704334543
  53     -0.029745910388
  54      0.004657114778
  55     -0.021147090322
  56     -0.034317902696
 Ene=   0.10752072605022E+01
 Spin= Alpha
 Occup=    0.000000
   1      0.000061264669
   2     -0.000983196057
   3     -0.002982744185
   4      0.029524849116
   5     -0.000639169415
   6      0.032811180531
   7      0.022544480104
   8     -0.005348202098
   9      0.025031934822
  10     -0.000957744748
  11     -0.059468343789
  12     -0.003454541778
  13      0.006322483324
  14     -0.065929415968
  15      0.000035705244
  16     -0.000074584753
  17      0.002311349531
  18      0.260968073281
  19     -0.014045994210
  20      0.289854472860
  21     -0.395343002234
  22      0.021801660082
  23     -0.439106970264
  24     -0.000449998347
  25     -0.028300930931
  26     -0.001206006799
  27      0.002926016553
  28     -0.031367440412
  29     -0.009415610361
  30      0.062996261401
  31     -0.118637681065
  32     -0.213191739690
  33     -0.495398893026
  34     -0.252718226536
  35      0.321952426660
  36      0.649132607110
  37      0.378642716594
  38      0.017702665979
  39      0.017758410209
  40      0.022641541591
  41     -0.036587805137
  42      0.018200698876
  43      0.009699641400
  44     -0.065258574718
  45      0.122367098827
  46     -0.204787984949
  47      0.513867669236
  48     -0.211465960711
  49      0.311794154410
  50     -0.675101793119
  51      0.325189447507
  52     -0.017084882831
  53      0.020276428812
  54     -0.020754029094
  55      0.032646160078
  56      0.023964300674
 Ene=   0.10860074053795E+01
 Spin= Alpha
 Occup=    0.000000
   1     -0.000094227704
   2      0.000607007544
   3      0.004349013822
   4      0.000016687318
   5     -0.000186178244
   6     -0.000013884294
   7     -0.000194642946
   8      0.001972453630
   9      0.000268023513
  10      0.000385331079
  11     -0.000001953968
  12     -0.000134545454
  13     -0.000459482447
  14     -0.000050037576
  15     -0.000371410498
  16      0.002213569125
  17     -0.004551961055
  18      0.000029069692
  19      0.000875446888
  20      0.000033413042
  21      0.000036000390
  22     -0.000290195458
  23     -0.000066885533
  24     -0.000028728999
  25      0.000007739280
  26     -0.000143206132
  27      0.000000114010
  28     -0.000000671564
  29     -0.000320146169
  30      0.001984761568
  31     -0.003212282168
  32      0.001024514039
  33      0.000500408411
  34     -0.000137587252
  35     -0.000567174974
  36     -0.001508745777
  37      0.000557143200
  38     -0.000008678427
  39     -0.000072374877
  40     -0.000042385746
  41     -0.000015680807
  42     -0.000080782322
  43     -0.000318076779
  44      0.001968694012
  45     -0.003181892601
  46     -0.001330422371
  47      0.000547847900
  48      0.000409124609
  49      0.001048559724
  50     -0.001519544634
  51     -0.001040818336
  52     -0.000026869096
  53      0.000068045862
  54     -0.000041126351
  55     -0.000036653119
  56      0.000087799459
 Ene=   0.10988239290802E+01
 Spin= Alpha
 Occup=    0.000000
   1      0.000197339249
   2     -0.003039309582
   3     -0.011718560554
   4     -0.000060463428
   5      0.001870003114
   6     -0.000008416564
   7      0.000076862078
   8     -0.007553497081
   9     -0.000110021251
  10     -0.000819465343
  11      0.000200214495
  12     -0.001294937701
  13      0.001680648501
  14      0.000283730879
  15      0.000359948135
  16     -0.002024489662
  17      0.008072517477
  18      0.000001150228
  19     -0.000904124182
  20     -0.000017099845
  21     -0.000049867634
  22      0.001429700280
  23     -0.000033543446
  24     -0.000138574934
  25     -0.000030364099
  26      0.000466512373
  27      0.000143622131
  28     -0.000008210333
  29      0.000712502633
  30     -0.004957598770
  31      0.008916624279
  32     -0.000577235074
  33     -0.004292590368
  34     -0.000772299635
  35     -0.001121722116
  36      0.008699278989
  37     -0.000992659527
  38      0.000079795011
  39      0.000269653300
  40      0.000069152480
  41     -0.000169437357
  42      0.000294805937
  43      0.000707125428
  44     -0.004859136942
  45      0.008810035061
  46      0.000850382367
  47     -0.004814860183
  48      0.000827688521
  49      0.000670648544
  50      0.009158535805
  51      0.000987702351
  52      0.000089327264
  53     -0.000300938683
  54      0.000090552459
  55     -0.000157505396
  56     -0.000344218695
 Ene=   0.11019760333208E+01
 Spin= Alpha
 Occup=    0.000000
   1     -0.000005741115
   2     -0.000392236642
   3     -0.000314096673
   4     -0.050628682544
   5     -0.003210148984
   6      0.045454016323
   7      0.763346392634
   8      0.026547263925
   9     -0.686122810211
  10      0.000705751798
  11     -0.007149324061
  12      0.000519216168
  13     -0.001775134770
  14      0.006232690281
  15      0.000387070466
  16     -0.002824088173
  17      0.003010998855
  18      0.251265081344
  19      0.008267619497
  20     -0.225859752605
  21     -0.500912868719
  22     -0.018601576545
  23      0.450180137553
  24     -0.000145992307
  25     -0.017491701462
  26     -0.000808366294
  27     -0.001399813320
  28      0.015692353770
  29     -0.000098247644
  30      0.000832540775
  31     -0.000894595201
  32      0.387148972940
  33      0.014674610964
  34     -0.346580288758
  35     -0.671792868641
  36     -0.025512585619
  37      0.602834463817
  38     -0.028924450414
  39      0.009381341484
  40     -0.003238842981
  41     -0.015772490656
  42     -0.009752128271
  43     -0.000096750452
  44      0.000815317504
  45     -0.000869138785
  46      0.387473305908
  47      0.014833740102
  48     -0.349596032298
  49     -0.672645241953
  50     -0.025655639520
  51      0.605462143922
  52      0.028892008635
  53      0.009017666675
  54      0.003835504407
  55      0.017472765925
  56     -0.006713000142
 Ene=   0.11338996985732E+01
 Spin= Alpha
 Occup=    0.000000
   1     -0.046829527411
   2      0.829885769755
   3      3.209325365341
   4      0.001769100148
   5      0.159945722710
   6      0.007401854589
   7      0.010514474036
   8      0.473033268065
   9      0.020087449480
  10     -0.049517494899
  11      0.000330742213
  12      0.014438358680
  13      0.082469981285
  14      0.006316038320
  15     -0.216433550994
  16      1.470549088057
  17     -3.190081467242
  18     -0.000148775455
  19     -0.137524972576
  20     -0.006534944299
  21      0.007317127688
  22      1.130277110811
  23      0.048730814622
  24     -0.017541594164
  25      0.002647116718
  26     -0.046047998237
  27      0.039976871734
  28      0.004022916423
  29     -0.142455353799
  30      0.934351968281
  31     -1.960709763903
  32     -0.055228347417
  33     -0.044071396953
  34     -0.065663335128
  35      0.390791183102
  36     -0.183134567324
  37      0.433714079563
  38      0.028663836548
  39     -0.004897024394
  40     -0.007651121844
  41     -0.047863061936
  42     -0.008936901845
  43     -0.141822282021
  44      0.930014305436
  45     -1.948864918998
  46      0.057083426364
  47     -0.050103664882
  48      0.059053601224
  49     -0.395997439683
  50     -0.140550735960
  51     -0.440013945295
  52      0.028826470355
  53      0.004145975216
  54     -0.007329031850
  55     -0.048233292110
  56      0.001125034370
 Ene=   0.11419015925149E+01
 Spin= Alpha
 Occup=    0.000000
   1     -0.000000857695
   2      0.000014983420
   3      0.000057157719
   4     -0.000117556953
   5      0.000000012667
   6      0.000035104790
   7      0.001319936419
   8      0.000029730530
   9     -0.000689695893
  10      0.000000151941
  11      0.000033654676
  12      0.000003991294
  13     -0.000006503143
  14      0.000057064356
  15     -0.000003343674
  16      0.000022294204
  17     -0.000051222912
  18      0.000742359346
  19     -0.000003427452
  20     -0.000081878058
  21     -0.001282031136
  22      0.000017300007
  23      0.000171353407
  24     -0.000000454762
  25     -0.000066860638
  26     -0.000003817032
  27      0.000003299623
  28     -0.000023954461
  29     -0.000023721534
  30      0.000123907108
  31     -0.000279613779
  32      0.000448619114
  33     -0.000365828587
  34     -0.000545482061
  35     -0.000810143787
  36      0.000424318627
  37      0.000908049224
  38     -0.000030158540
  39      0.000018259863
  40     -0.000004319684
  41     -0.000044120373
  42      0.000002425033
  43      0.000018789635
  44     -0.000090128320
  45      0.000206764072
  46      0.000477536968
  47      0.000410847529
  48     -0.000530941739
  49     -0.000854570068
  50     -0.000506274898
  51      0.000873060418
  52      0.000031937034
  53      0.000018646428
  54      0.000005537128
  55      0.000042260083
  56      0.000010191385
 Ene=   0.14623720406283E+01
 Spin= Alpha
 Occup=    0.000000
   1      0.000006322721
   2     -0.000069538090
   3     -0.000169901193
   4     -0.000011584660
   5      0.000142947980
   6     -0.000039365978
   7     -0.000066659927
   8      0.001040274153
   9     -0.000374387759
  10     -0.000045778036
  11      0.000026936533
  12     -0.000071243868
  13      0.000039888971
  14      0.000404803728
  15     -0.000055335767
  16      0.000425987152
  17     -0.001181792070
  18     -0.000052548777
  19     -0.000013826756
  20     -0.000083754544
  21      0.000052548299
  22      0.000364478239
  23      0.000068968366
  24     -0.000013839355
  25     -0.000031244631
  26     -0.000000070454
  27      0.000029581219
  28     -0.000098246306
  29      0.000023109470
  30     -0.000266503926
  31      0.001031487629
  32      0.000239457962
  33      0.000004830672
  34     -0.000105949351
  35     -0.000594945170
  36     -0.000026725965
  37     -0.000157846276
  38     -0.000070513743
  39     -0.000007087446
  40     -0.000028886371
  41      0.000010683897
  42     -0.000026035059
  43      0.000060206502
  44     -0.000369284043
  45      0.000540128586
  46      0.000178843994
  47      0.000163653699
  48     -0.000190774649
  49     -0.000105901918
  50     -0.000252891851
  51      0.000408361647
  52      0.000075872222
  53     -0.000021326333
  54     -0.000007064917
  55      0.000000133150
  56     -0.000044140085
 Ene=   0.14626166866524E+01
 Spin= Alpha
 Occup=    0.000000
   1     -0.007407239255
   2      0.081872632272
   3      0.201149439956
   4     -0.000741457907
   5     -0.166209771967
   6     -0.006199449008
   7     -0.005331704713
   8     -1.203995438397
   9     -0.045074548152
  10      0.043911975907
  11     -0.003906655757
  12      0.087706980110
  13     -0.094235761812
  14     -0.009555707807
  15      0.064798646632
  16     -0.499668143730
  17      1.389795441779
  18      0.000396965058
  19      0.020983296938
  20      0.001197822095
  21     -0.005098124785
  22     -0.432390164814
  23     -0.018857711395
  24      0.014773601324
  25     -0.000657529888
  26     -0.002535300989
  27     -0.024999826457
  28     -0.001817026371
  29     -0.049250153180
  30      0.376319628720
  31     -0.931990064705
  32     -0.044146934898
  33     -0.091173562524
  34     -0.051566575461
  35      0.300371311625
  36      0.143148222102
  37      0.337759615255
  38     -0.001543890218
  39     -0.009158729755
  40      0.019828033496
  41     -0.000449175349
  42     -0.009544200471
  43     -0.048561218114
  44      0.371219153808
  45     -0.918565132061
  46      0.042525845893
  47     -0.096021732961
  48      0.044688758978
  49     -0.295273434439
  50      0.177710447780
  51     -0.323637675139
  52     -0.001680983336
  53      0.007378857551
  54      0.020434331659
  55     -0.002461915233
  56      0.008749758751
 Ene=   0.14880841142841E+01
 Spin= Alpha
 Occup=    0.000000
   1     -0.000002670970
   2      0.000020753429
   3      0.000080675518
   4     -0.004422676183
   5      0.000190423433
   6     -0.004217946160
   7     -0.029490295467
   8      0.001499053497
   9     -0.034181668775
  10      0.742534219520
  11     -0.002806326276
  12      0.090974852143
  13      0.427232430852
  14      0.034507497320
  15      0.000002813672
  16     -0.000020588870
  17      0.000091521632
  18     -0.002321503017
  19      0.000098754244
  20     -0.001940036062
  21      0.005749886962
  22     -0.000443675048
  23      0.009213551365
  24      0.085316930803
  25     -0.003115943187
  26      0.010349323338
  27      0.049085985160
  28      0.004537165953
  29      0.002116265415
  30     -0.016302577650
  31      0.046805569810
  32     -0.045472295407
  33     -0.003111636740
  34      0.039879702928
  35     -0.151794279537
  36      0.006970267798
  37      0.123779953268
  38     -0.149763015208
  39      0.095593074581
  40     -0.015690780619
  41     -0.080137276858
  42     -0.090165912898
  43     -0.002133225748
  44      0.016429963746
  45     -0.047078087473
  46      0.044497755999
  47      0.003143878847
  48     -0.040806060500
  49      0.139129163314
  50     -0.006255035240
  51     -0.138990679550
  52     -0.152912903433
  53     -0.090449450052
  54     -0.021220968368
  55     -0.094125559504
  56      0.076668513604
 Ene=   0.14887310005038E+01
 Spin= Alpha
 Occup=    0.000000
   1     -0.000000245605
   2     -0.000001727416
   3     -0.000011208722
   4      0.000364982343
   5     -0.000014074757
   6      0.000337964336
   7      0.002248299193
   8     -0.000088331158
   9      0.002688138004
  10     -0.000201156173
  11     -0.001604526753
  12     -0.000086328755
  13     -0.000157743908
  14      0.000939641570
  15     -0.000000464536
  16      0.000006295269
  17     -0.000034066159
  18      0.000271407874
  19     -0.000006839004
  20      0.000070822115
  21     -0.000195665834
  22      0.000053713031
  23     -0.000980104984
  24     -0.000014503058
  25      0.000418912030
  26      0.000012174510
  27      0.000011997486
  28     -0.000327465893
  29     -0.000162019693
  30      0.001253897728
  31     -0.003617646015
  32     -0.000001241356
  33      0.000061829998
  34      0.000093565494
  35      0.000421629130
  36     -0.000819020347
  37      0.000602266631
  38     -0.000161694445
  39     -0.000072957880
  40      0.000014128652
  41     -0.000157626067
  42      0.000009425017
  43      0.000164022230
  44     -0.001272019300
  45      0.003672883912
  46     -0.000037142278
  47     -0.000062001971
  48      0.000101018735
  49      0.000390573460
  50      0.000749644542
  51      0.000751516009
  52      0.000233334095
  53     -0.000032261907
  54     -0.000010432825
  55      0.000197193929
  56     -0.000004185857
 Ene=   0.14919653109234E+01
 Spin= Alpha
 Occup=    0.000000
   1      0.000031454434
   2     -0.000247591253
   3     -0.000541534735
   4     -0.004038166599
   5      0.000320821320
   6      0.003613769330
   7      0.011148782704
   8      0.004205547082
   9     -0.010113196038
  10      0.002065048351
  11      0.160758221043
  12      0.005270768946
  13      0.010861369444
  14     -0.144244043441
  15     -0.000207783636
  16      0.001583627907
  17     -0.004405241729
  18     -0.013512142073
  19     -0.000577227949
  20      0.012121732433
  21     -0.044846062376
  22      0.000102000418
  23      0.040454886765
  24     -0.000728924225
  25     -0.047256547293
  26     -0.001576246582
  27     -0.003041433361
  28      0.042422538545
  29      0.000157371665
  30     -0.001209333920
  31      0.003054777375
  32      0.007194575182
  33      0.000545915117
  34     -0.006165138534
  35      0.012195080717
  36     -0.000107842675
  37     -0.012931941759
  38      0.027048010928
  39      0.004180342175
  40      0.003328060731
  41      0.015851020907
  42     -0.002834321089
  43      0.000138766406
  44     -0.001063770375
  45      0.002629316198
  46      0.006846715142
  47      0.000574213887
  48     -0.006436675205
  49      0.014126634765
  50     -0.000304280319
  51     -0.010908142029
  52     -0.026913211849
  53      0.004851085068
  54     -0.003258230587
  55     -0.015217584499
  56     -0.005253045640
 Ene=   0.14934547967587E+01
 Spin= Alpha
 Occup=    0.000000
   1      0.000016515241
   2     -0.000085817617
   3     -0.000128755523
   4     -0.000031770964
   5      0.000079932401
   6     -0.000033001813
   7     -0.000229812845
   8      0.000949363316
   9     -0.000222511067
  10     -0.000905826657
  11      0.000041304553
  12     -0.000170455117
  13     -0.000443700955
  14     -0.000013827619
  15     -0.000046876022
  16      0.000354239745
  17     -0.001011056205
  18     -0.000012946468
  19     -0.000096798484
  20     -0.000016371180
  21      0.000056628114
  22      0.000345541605
  23      0.000074496218
  24     -0.000137820819
  25     -0.000003303376
  26      0.000004521028
  27     -0.000036912642
  28     -0.000006780853
  29      0.000051332283
  30     -0.000397348010
  31      0.001049626303
  32      0.000081149764
  33      0.000104439832
  34     -0.000011869252
  35     -0.000100348569
  36     -0.000061933535
  37     -0.000462200627
  38      0.000182658067
  39     -0.000113467740
  40     -0.000002563020
  41      0.000097301214
  42      0.000119231041
  43      0.000018005403
  44     -0.000140656167
  45      0.000314821620
  46     -0.000091463263
  47      0.000131866545
  48      0.000009321735
  49      0.000000899369
  50     -0.000269196141
  51      0.000335933274
  52      0.000186150430
  53      0.000117495686
  54      0.000011456354
  55      0.000107331950
  56     -0.000093728459
 Ene=   0.14942839164630E+01
 Spin= Alpha
 Occup=    0.000000
   1     -0.000000442647
   2      0.000002920767
   3     -0.000000591276
   4      0.000008436137
   5      0.000018679101
   6     -0.000000949407
   7      0.000012161116
   8     -0.000079260433
   9      0.000023116136
  10      0.001452915207
  11     -0.000223294735
  12      0.000255346996
  13      0.000569203973
  14      0.000218612403
  15     -0.000034544895
  16      0.000177941744
  17     -0.000067621476
  18      0.000029909464
  19      0.000047299943
  20     -0.000022055742
  21      0.000035786418
  22     -0.000057571184
  23     -0.000044952077
  24      0.000151650948
  25      0.000053398738
  26      0.000039348111
  27      0.000121011888
  28     -0.000040963770
  29      0.000018163843
  30     -0.000086050472
  31      0.000010730651
  32     -0.000206728053
  33     -0.000032032910
  34      0.000131814085
  35     -0.000178882975
  36     -0.000025596980
  37      0.000212315823
  38     -0.000324652197
  39      0.000149073908
  40     -0.000070405283
  41     -0.000134590117