[Molden Format]
[Title]
generated by TRESC, real part1 of MOs of job CO3
 
[Atoms] AU
 C   1   6    0.3364484192    5.8882927452    0.3891081484
 O   2   8    2.6974300312    5.9862747024    0.4085979628
 O   3   8   -0.7714112401    7.4618585764    1.8371371576
 O   4   8   -0.6184572465    4.2284969646   -1.0743142370
[GTO]
  1 0
 s  5 1.0
     1238.4016938000        0.0059599745
      186.2900499200        0.0422621111
       42.2511763500        0.1866575214
       11.6765579300        0.4675815865
        3.5930506500        0.4422897287
 s  1 1.0
        0.4024514700        1.0000000000
 s  1 1.0
        0.1309018300        1.0000000000
 p  3 1.0
        9.4680970600        0.0570294585
        2.0103545100        0.3130471495
        0.5477100500        0.7605135301
 p  1 1.0
        0.1526861400        1.0000000000
 d  1 1.0
        0.8000000000        1.0000000000
 
  2 0
 s  5 1.0
     2266.1767785000        0.0060711540
      340.8701019100        0.0417308970
       77.3631351700        0.1850777598
       21.4796449400        0.4668774046
        6.6589433100        0.4435718061
 s  1 1.0
        0.8097597600        1.0000000000
 s  1 1.0
        0.2553077200        1.0000000000
 p  3 1.0
       17.7215043200        0.0628680198
        3.8635505400        0.3334973703
        1.0480920900        0.7412421661
 p  1 1.0
        0.2764154400        1.0000000000
 d  1 1.0
        1.2000000000        1.0000000000
 
  3 0
 s  5 1.0
     2266.1767785000        0.0060711540
      340.8701019100        0.0417308970
       77.3631351700        0.1850777598
       21.4796449400        0.4668774046
        6.6589433100        0.4435718061
 s  1 1.0
        0.8097597600        1.0000000000
 s  1 1.0
        0.2553077200        1.0000000000
 p  3 1.0
       17.7215043200        0.0628680198
        3.8635505400        0.3334973703
        1.0480920900        0.7412421661
 p  1 1.0
        0.2764154400        1.0000000000
 d  1 1.0
        1.2000000000        1.0000000000
 
  4 0
 s  5 1.0
     2266.1767785000        0.0060711540
      340.8701019100        0.0417308970
       77.3631351700        0.1850777598
       21.4796449400        0.4668774046
        6.6589433100        0.4435718061
 s  1 1.0
        0.8097597600        1.0000000000
 s  1 1.0
        0.2553077200        1.0000000000
 p  3 1.0
       17.7215043200        0.0628680198
        3.8635505400        0.3334973703
        1.0480920900        0.7412421661
 p  1 1.0
        0.2764154400        1.0000000000
 d  1 1.0
        1.2000000000        1.0000000000
 
[5D]
[7F]
[9G]
[MO]
 Ene=  -0.19367826262224E+02
 Spin= Alpha
 Occup=    1.000000
   1     -0.000044488027
   2     -0.000073888333
   3     -0.001596650715
   4      0.000000264614
   5      0.000026954897
   6      0.000001144543
   7     -0.000015906010
   8     -0.001849521877
   9     -0.000077322753
  10     -0.000131549322
  11      0.000006977536
  12     -0.000075014071
  13      0.000242939316
  14      0.000021040551
  15     -0.133259354051
  16     -0.006180873456
  17      0.004705710479
  18      0.000003268028
  19      0.000413446012
  20      0.000017487875
  21     -0.000008677235
  22     -0.001069076663
  23     -0.000044459002
  24      0.000016531507
  25      0.000000235766
  26     -0.000030192290
  27     -0.000021846824
  28     -0.000002129011
  29      0.000166599663
  30      0.000164985308
  31     -0.000265448781
  32     -0.000050317270
  33      0.000002261606
  34     -0.000055893917
  35      0.000183710459
  36      0.000240818628
  37      0.000211844548
  38      0.000003427903
  39     -0.000029894463
  40     -0.000033617290
  41      0.000003170762
  42     -0.000034356913
  43      0.000211775757
  44      0.000166603164
  45     -0.000268027081
  46      0.000050243791
  47     -0.000003050369
  48      0.000055785332
  49     -0.000179786033
  50      0.000260495167
  51     -0.000191823518
  52      0.000004053271
  53      0.000032603188
  54     -0.000030592200
  55     -0.000002525232
  56      0.000034961729
 Ene=  -0.19344451621918E+02
 Spin= Alpha
 Occup=    0.000000
   1     -0.000000010866
   2     -0.000000020555
   3     -0.000000388210
   4      0.000000056630
   5      0.000000004178
   6      0.000000004730
   7      0.000000356957
   8     -0.000000489184
   9      0.000000449003
  10     -0.000000031310
  11     -0.000000041778
  12     -0.000000020466
  13      0.000000056282
  14      0.000000060153
  15     -0.000033175645
  16     -0.000001541004
  17      0.000001174595
  18     -0.000000225731
  19      0.000000103490
  20      0.000000019818
  21      0.000000037343
  22     -0.000000265687
  23     -0.000000109647
  24      0.000000008318
  25      0.000000315937
  26     -0.000000011832
  27     -0.000000019641
  28      0.000000316281
  29      0.000018740714
  30      0.000000958174
  31     -0.000000914368
  32     -0.000000049627
  33      0.000000054343
  34     -0.000000050053
  35      0.000000167596
  36     -0.000000109874
  37      0.000000165869
  38      0.000000014971
  39      0.000000026415
  40     -0.000000012843
  41     -0.000000025477
  42     -0.000000016983
  43     -0.000017680553
  44     -0.000000832488
  45      0.000000751226
  46     -0.000000024751
  47     -0.000000050231
  48     -0.000000023771
  49      0.000000074866
  50      0.000000223085
  51      0.000000073457
  52     -0.000000015033
  53      0.000000043060
  54     -0.000000001801
  55      0.000000025553
  56      0.000000003249
 Ene=  -0.19322240311041E+02
 Spin= Alpha
 Occup=    0.000001
   1     -0.000000211181
   2     -0.000000585887
   3     -0.000007304306
   4     -0.000000031117
   5      0.000000065252
   6     -0.000000051746
   7     -0.000006000768
   8      0.000004802256
   9     -0.000006493651
  10      0.000000169467
  11     -0.000000615484
  12      0.000000796558
  13     -0.000000459251
  14     -0.000000729515
  15     -0.000006405093
  16      0.000000599585
  17     -0.000001723442
  18     -0.000000087861
  19     -0.000000304062
  20     -0.000000124688
  21      0.000001246537
  22      0.000000648305
  23      0.000001402497
  24     -0.000000007112
  25     -0.000000162397
  26     -0.000000195721
  27      0.000000058222
  28     -0.000000146053
  29     -0.000635271168
  30     -0.000028832590
  31      0.000022920832
  32      0.000001051208
  33     -0.000001026635
  34      0.000001248876
  35     -0.000003196180
  36      0.000002445005
  37     -0.000003531962
  38      0.000000091249
  39      0.000000399640
  40      0.000000066243
  41      0.000000075255
  42      0.000000176222
  43     -0.000068470296
  44     -0.000002340700
  45     -0.000000878795
  46     -0.000000109371
  47      0.000000145806
  48     -0.000000114240
  49      0.000000503922
  50     -0.000001990755
  51      0.000000491856
  52      0.000000173523
  53     -0.000000241866
  54      0.000000145459
  55     -0.000000268850
  56     -0.000000187610
 Ene=  -0.19321227765826E+02
 Spin= Alpha
 Occup=    0.000001
   1      0.000000181112
   2      0.000000510292
   3      0.000006297162
   4     -0.000000043970
   5     -0.000000052831
   6     -0.000000072583
   7     -0.000007272324
   8     -0.000003500599
   9     -0.000008183921
  10     -0.000000165323
  11     -0.000000653906
  12     -0.000000744326
  13      0.000000518242
  14     -0.000000771781
  15      0.000005494619
  16     -0.000000516876
  17      0.000001498317
  18     -0.000000099897
  19      0.000000272022
  20     -0.000000123583
  21      0.000001486310
  22     -0.000000694256
  23      0.000001628278
  24      0.000000002630
  25     -0.000000213917
  26      0.000000150367
  27     -0.000000021472
  28     -0.000000188710
  29     -0.000036057362
  30     -0.000002427364
  31      0.000004764141
  32      0.000000058759
  33     -0.000000311921
  34      0.000000080602
  35      0.000000013882
  36      0.000002411794
  37      0.000000083256
  38     -0.000000168232
  39     -0.000000160605
  40     -0.000000161261
  41      0.000000321243
  42     -0.000000115527
  43      0.000643434833
  44      0.000029336373
  45     -0.000023791801
  46      0.000001083630
  47      0.000000955117
  48      0.000001344810
  49     -0.000003252270
  50     -0.000002502962
  51     -0.000003756491
  52     -0.000000059715
  53      0.000000366872
  54     -0.000000010586
  55     -0.000000150214
  56      0.000000132701
 Ene=  -0.19310506967091E+02
 Spin= Alpha
 Occup=    0.999999
   1      0.000235502833
   2      0.000673512873
   3      0.008234927472
   4      0.000102862904
   5     -0.000049749830
   6      0.000112878722
   7      0.010470101762
   8     -0.005795154618
   9      0.011452239831
  10     -0.000238557970
  11      0.001047228797
  12     -0.000918422904
  13      0.000539451093
  14      0.001167747784
  15      0.001377553030
  16     -0.000943074402
  17      0.002152562415
  18      0.000185403282
  19      0.000355181500
  20      0.000217390359
  21     -0.002170395432
  22     -0.000702568481
  23     -0.002435125662
  24      0.000018950325
  25      0.000240684537
  26      0.000219209024
  27     -0.000094747273
  28      0.000269685729
  29      0.895581840584
  30      0.040884952548
  31     -0.033301799293
  32     -0.001625622661
  33      0.001307408918
  34     -0.001764009335
  35      0.004534577977
  36     -0.003982204105
  37      0.004909971880
  38      0.000057414297
  39     -0.000185529280
  40      0.000136509919
  41     -0.000115461072
  42     -0.000209683093
  43     -0.095542295618
  44     -0.005445132947
  45      0.008258812281
  46     -0.000198725274
  47     -0.000447662819
  48     -0.000236403687
  49      0.000279508781
  50      0.003541717382
  51      0.000430171182
  52     -0.000214652240
  53      0.000219320919
  54     -0.000192167387
  55      0.000397458851
  56      0.000263885412
 Ene=  -0.19309757207910E+02
 Spin= Alpha
 Occup=    0.999999
   1      0.000316890270
   2      0.000917487006
   3      0.011137297532
   4     -0.000097492571
   5     -0.000058680572
   6     -0.000110228763
   7     -0.009340260000
   8     -0.006625300884
   9     -0.010611095276
  10     -0.000350857066
  11     -0.000816306898
  12     -0.001348378971
  13      0.000949054658
  14     -0.000896120812
  15      0.001828846306
  16     -0.001275045756
  17      0.002935697216
  18     -0.000156615807
  19      0.000500647206
  20     -0.000158413568
  21      0.001905736084
  22     -0.001208657645
  23      0.002082853092
  24      0.000017685362
  25     -0.000236028037
  26      0.000265213495
  27     -0.000072509420
  28     -0.000258087702
  29      0.104397459968
  30      0.003554011112
  31      0.001394601009
  32     -0.000168249023
  33     -0.000214892505
  34     -0.000194593212
  35      0.000816061133
  36      0.003056447391
  37      0.001010726923
  38     -0.000232475998
  39     -0.000258057518
  40     -0.000206619769
  41      0.000463311400
  42     -0.000263976981
  43      0.979093835446
  44      0.044447709862
  45     -0.035312844871
  46      0.001787972925
  47      0.001162682636
  48      0.002028047978
  49     -0.005071787438
  50     -0.003084419273
  51     -0.005745274838
  52      0.000016458165
  53      0.000239430221
  54      0.000123598016
  55     -0.000070631481
  56      0.000266662349
 Ene=  -0.10455329174740E+02
 Spin= Alpha
 Occup=    1.000000
   1      0.214807714534
   2      0.011504351558
   3      0.000346787581
   4      0.000004088734
   5      0.000156494496
   6      0.000008641033
   7      0.000002935704
   8      0.000132274046
   9      0.000005955513
  10     -0.000249252001
  11     -0.000029921232
  12      0.000866687287
  13      0.000247342541
  14      0.000014117113
  15     -0.000004306922
  16      0.000094128172
  17     -0.002167699410
  18      0.000002174851
  19      0.000273968067
  20      0.000011286486
  21      0.000013839440
  22      0.001662097630
  23      0.000069445061
  24      0.000170030937
  25     -0.000005059913
  26      0.000004817904
  27     -0.000294616803
  28     -0.000024031938
  29      0.000002342857
  30      0.000153901411
  31     -0.002122649002
  32      0.000159414729
  33     -0.000141162377
  34      0.000172371266
  35      0.001043550288
  36     -0.000759916436
  37      0.001135638313
  38     -0.000014352111
  39      0.000205116528
  40     -0.000280014353
  41      0.000071057013
  42      0.000222914383
  43      0.000002549165
  44      0.000155468708
  45     -0.002118491582
  46     -0.000160569124
  47     -0.000123738489
  48     -0.000182973289
  49     -0.001052610740
  50     -0.000649119209
  51     -0.001192267750
  52     -0.000019044579
  53     -0.000180384551
  54     -0.000299531567
  55      0.000109041286
  56     -0.000204562993
 Ene=  -0.10455134892412E+02
 Spin= Alpha
 Occup=    0.000000
   1     -0.000004546550
   2     -0.000000243436
   3     -0.000000007298
   4     -0.000000040566
   5     -0.000000001765
   6     -0.000000013644
   7      0.000000013000
   8     -0.000000003474
   9      0.000000001574
  10      0.000000010549
  11     -0.000000077980
  12     -0.000000020214
  13     -0.000000008355
  14      0.000000101392
  15     -0.000000000483
  16     -0.000000002127
  17      0.000000046140
  18      0.000000060407
  19     -0.000000003252
  20     -0.000000006590
  21     -0.000000061677
  22     -0.000000034711
  23     -0.000000024997
  24     -0.000000002437
  25      0.000000223584
  26      0.000000008380
  27      0.000000003221
  28      0.000000000599
  29     -0.000000017952
  30      0.000000009934
  31      0.000000048989
  32     -0.000000046677
  33     -0.000000025121
  34     -0.000000007846
  35      0.000000001226
  36      0.000000064209
  37     -0.000000023011
  38     -0.000000088773
  39     -0.000000013064
  40     -0.000000049332
  41      0.000000053237
  42     -0.000000110339
  43      0.000000017403
  44     -0.000000015502
  45      0.000000039861
  46     -0.000000035219
  47      0.000000032279
  48     -0.000000001289
  49      0.000000042405
  50     -0.000000034740
  51      0.000000023832
  52      0.000000076532
  53     -0.000000015735
  54      0.000000057517
  55     -0.000000046483
  56     -0.000000106761
 Ene=  -0.12374743560167E+01
 Spin= Alpha
 Occup=    1.000000
   1     -0.165567395994
   2      0.325713023852
   3      0.008357349389
   4      0.001249127961
   5      0.085550672501
   6      0.004085837003
   7      0.000039960379
   8      0.001506550766
   9      0.000101247035
  10     -0.009540095790
  11     -0.000433752031
  12      0.016124104434
  13      0.013067705054
  14      0.000951141868
  15     -0.196230654183
  16      0.395813924273
  17      0.208154071545
  18     -0.001008340182
  19     -0.130323361891
  20     -0.005275033461
  21     -0.000243939460
  22     -0.034134350852
  23     -0.001373960417
  24     -0.005038348345
  25     -0.000160589270
  26      0.007037866077
  27      0.007211684180
  28      0.000538666674
  29     -0.086503473954
  30      0.169293784709
  31      0.090059739231
  32     -0.039586261075
  33      0.040665498453
  34     -0.042704544097
  35     -0.010308303234
  36      0.011230193003
  37     -0.011096728136
  38      0.000091934443
  39     -0.004641516328
  40      0.004408484440
  41     -0.000793037476
  42     -0.005059583421
  43     -0.085677365269
  44      0.167667476925
  45      0.089271758352
  46      0.039773231346
  47      0.036137065174
  48      0.045418509431
  49      0.010397467696
  50      0.010037714367
  51      0.011894943004
  52      0.000189648022
  53      0.004194971097
  54      0.004802760036
  55     -0.001635045360
  56      0.004738877819
 Ene=  -0.12212250086906E+01
 Spin= Alpha
 Occup=    0.000000
   1      0.000000253552
   2     -0.000000485771
   3      0.000000008516
   4     -0.000010322502
   5      0.000000403571
   6     -0.000001609010
   7      0.000003543254
   8     -0.000000120131
   9     -0.000000720944
  10     -0.000000020676
  11      0.000001462839
  12      0.000000012163
  13     -0.000000050222
  14      0.000000495564
  15      0.000000192470
  16     -0.000000353367
  17     -0.000000282732
  18      0.000116241862
  19     -0.000000849899
  20      0.000004191823
  21     -0.000000783062
  22      0.000000184475
  23     -0.000000886831
  24     -0.000000022034
  25     -0.000003121700
  26     -0.000000139870
  27     -0.000000023512
  28      0.000000128112
  29      0.000000943678
  30     -0.000002555352
  31      0.000001125434
  32     -0.000039027032
  33     -0.000046369104
  34      0.000003343559
  35      0.000000436205
  36      0.000005236244
  37      0.000000765735
  38      0.000000970601
  39     -0.000000228557
  40      0.000000916046
  41     -0.000000513622
  42      0.000000487145
  43     -0.000000605049
  44      0.000001882282
  45     -0.000001471487
  46     -0.000033404447
  47      0.000045924893
  48      0.000002860309
  49      0.000000269760
  50     -0.000005184792
  51      0.000000342473
  52     -0.000000832826
  53     -0.000000070128
  54     -0.000000893074
  55      0.000000503654
  56      0.000000521493
 Ene=  -0.10975853902624E+01
 Spin= Alpha
 Occup=    0.000001
   1      0.000055966179
   2     -0.000114888862
   3     -0.000009558287
   4      0.000004119222
   5      0.000231739130
   6      0.000006557002
   7     -0.000001225920
   8     -0.000005807773
   9      0.000000479953
  10     -0.000010898414
  11      0.000001227031
  12     -0.000020046828
  13      0.000021460619
  14      0.000001926117
  15     -0.000132345942
  16      0.000274962690
  17      0.000149847142
  18     -0.000001686886
  19     -0.000034407351
  20     -0.000002857558
  21      0.000000119179
  22     -0.000000170085
  23     -0.000000359116
  24      0.000002259659
  25     -0.000000202068
  26      0.000004825870
  27     -0.000004064826
  28     -0.000000320714
  29      0.000115079633
  30     -0.000231097991
  31     -0.000131588892
  32     -0.000008029290
  33     -0.000076754540
  34      0.000053506270
  35      0.000010869592
  36      0.000000328856
  37      0.000013430387
  38      0.000000157573
  39      0.000001769422
  40     -0.000002496070
  41      0.000001835261
  42      0.000003147365
  43      0.000113458750
  44     -0.000227888943
  45     -0.000129606055
  46      0.000002834272
  47     -0.000071321539
  48     -0.000054413485
  49     -0.000010147778
  50      0.000001822236
  51     -0.000013369983
  52      0.000000008439
  53     -0.000001483492
  54     -0.000002574640
  55      0.000002189524
  56     -0.000002592171
 Ene=  -0.10872534265147E+01
 Spin= Alpha
 Occup=    0.999999
   1     -0.071157285345
   2      0.149440284118
   3      0.018369376598
   4      0.001228195460
   5     -0.243889513071
   6     -0.006635143629
   7      0.000130234294
   8     -0.014063589235
   9     -0.000318025264
  10      0.010269633564
  11     -0.001523325771
  12      0.022912954606
  13     -0.022553563737
  14     -0.002317227315
  15      0.181173423220
  16     -0.373710033233
  17     -0.220124645382
  18      0.001148001577
  19      0.071638717479
  20      0.003563662418
  21      0.000350793979
  22      0.020072638552
  23      0.001028288095
  24      0.001045068593
  25      0.000169575550
  26     -0.006201319761
  27     -0.000489300511
  28     -0.000061774691
  29     -0.154935614414
  30      0.311084138470
  31      0.179654761888
  32     -0.060377235565
  33      0.027151715344
  34     -0.066230579138
  35     -0.017294415999
  36      0.006151989920
  37     -0.019022725730
  38      0.001518917715
  39     -0.003746834822
  40      0.005737289492
  41     -0.003597559960
  42     -0.004199254938
  43     -0.149010869364
  44      0.299156104571
  45      0.172954801752
  46      0.058699199834
  47      0.018939974874
  48      0.065946731662
  49      0.016887931352
  50      0.003809376684
  51      0.018920935020
  52      0.001569389985
  53      0.002959978044
  54      0.005917649975
  55     -0.004181639984
  56      0.003236258004
 Ene=  -0.10727099319990E+01
 Spin= Alpha
 Occup=    0.000008
   1      0.000004855167
   2     -0.000010117420
   3     -0.000001335346
   4      0.000610131681
   5     -0.000016964168
   6      0.000595095830
   7      0.000023041490
   8     -0.000001181810
   9      0.000051068939
  10     -0.000001000442
  11     -0.000045550559
  12     -0.000003423369
  13      0.000005358364
  14     -0.000049022286
  15     -0.000008542468
  16      0.000017582614
  17      0.000010620281
  18     -0.000040252743
  19     -0.000006974574
  20      0.000093548110
  21      0.000028915585
  22     -0.000002736261
  23      0.000034310602
  24     -0.000000161827
  25     -0.000006664493
  26     -0.000000063223
  27      0.000001051583
  28     -0.000011299943
  29     -0.000523285587
  30      0.001055346370
  31      0.000597288525
  32     -0.000159891586
  33      0.000141254515
  34     -0.000178707180
  35     -0.000032198100
  36      0.000049795024
  37     -0.000040992226
  38     -0.000000389943
  39     -0.000016159747
  40      0.000009122475
  41     -0.000000291724
  42     -0.000017879328
  43      0.000541298486
  44     -0.001091527609
  45     -0.000618651590
  46     -0.000165824707
  47     -0.000124688659
  48     -0.000201188138
  49     -0.000034970243
  50     -0.000046513482
  51     -0.000047568255
  52     -0.000000000191
  53     -0.000015664020
  54     -0.000011441917
  55      0.000003894925
  56     -0.000017827329
 Ene=  -0.10707726524660E+01
 Spin= Alpha
 Occup=    0.999992
   1     -0.001444808061
   2      0.003005680711
   3      0.000399819427
   4     -0.195849038748
   5      0.006952221965
   6     -0.217613674282
   7     -0.016008808721
   8      0.000613535549
   9     -0.017786414926
  10      0.000298646092
  11      0.015044453484
  12      0.001086327226
  13     -0.001768006720
  14      0.016675485447
  15      0.002218230410
  16     -0.004577927352
  17     -0.002731283430
  18     -0.033796563811
  19      0.002616919082
  20     -0.037506503368
  21     -0.012586098689
  22      0.000902443135
  23     -0.013970160877
  24      0.000060846855
  25      0.003791495455
  26      0.000112285616
  27     -0.000375601487
  28      0.004201328523
  29      0.191347869043
  30     -0.385353287879
  31     -0.221153437280
  32      0.059773815035
  33     -0.067247939466
  34      0.064242014576
  35      0.015489468246
  36     -0.019958436315
  37      0.016561707747
  38      0.000110949693
  39      0.006811990910
  40     -0.004228364642
  41      0.000253915853
  42      0.007446589313
  43     -0.196456002524
  44      0.395615435718
  45      0.227199553773
  46      0.062607712581
  47      0.061616647384
  48      0.071698338301
  49      0.016378249871
  50      0.018477023556
  51      0.018836448191
  52      0.000071192253
  53      0.006519107508
  54      0.005081656466
  55     -0.001650430908
  56      0.007336248539
 Ene=  -0.62751501457174E+00
 Spin= Alpha
 Occup=    0.999998
   1      0.149652889250
   2     -0.369316216897
   3     -0.019576224661
   4     -0.001662460647
   5     -0.166111594746
   6     -0.007218811711
   7     -0.000055628469
   8     -0.014876232520
   9     -0.000572240966
  10      0.004045862155
  11      0.000091248292
  12     -0.005101071408
  13     -0.005908177415
  14     -0.000456572616
  15     -0.130172743187
  16      0.274962177906
  17      0.294117001598
  18      0.003642610333
  19      0.427218535116
  20      0.018028376322
  21      0.001784622386
  22      0.207843952342
  23      0.008772791084
  24      0.010857974911
  25     -0.000567970578
  26      0.006102484509
  27     -0.020036651110
  28     -0.001712936546
  29     -0.077702775348
  30      0.162079990127
  31      0.156199398234
  32      0.075327425530
  33     -0.106622739608
  34      0.080234609284
  35      0.037538709961
  36     -0.054990118309
  37      0.039935419488
  38      0.000619610162
  39      0.004337416833
  40     -0.003498993926
  41     -0.000608693506
  42      0.004658155903
  43     -0.077369669133
  44      0.161373174939
  45      0.155444568868
  46     -0.075992598528
  47     -0.098000905545
  48     -0.087791547144
  49     -0.037884934267
  50     -0.050700368484
  51     -0.043815468263
  52      0.000501175666
  53     -0.004023259673
  54     -0.003866449917
  55      0.000227341714
  56     -0.004609946773
 Ene=  -0.61496180294800E+00
 Spin= Alpha
 Occup=    0.000006
   1      0.000003480205
   2     -0.000008629889
   3     -0.000000403419
   4     -0.000435964721
   5      0.000000850684
   6      0.000040382581
   7     -0.000161648056
   8      0.000000982621
   9      0.000028063699
  10      0.000000628898
  11     -0.000068752615
  12     -0.000002847461
  13      0.000002233074
  14     -0.000012141436
  15     -0.000001989035
  16      0.000004318009
  17      0.000003898382
  18     -0.001482838817
  19      0.000028083443
  20     -0.000245047957
  21     -0.000661543304
  22      0.000013808764
  23     -0.000128006026
  24      0.000000963719
  25      0.000055544135
  26      0.000002448031
  27     -0.000001188418
  28      0.000005821125
  29     -0.000109076877
  30      0.000228946273
  31      0.000252255097
  32      0.000144362298
  33      0.000067850075
  34      0.000154550598
  35      0.000026105906
  36     -0.000048771255
  37      0.000065279193
  38      0.000006362444
  39     -0.000000982798
  40     -0.000007298559
  41      0.000004026989
  42      0.000005807778
  43      0.000104267615
  44     -0.000218906664
  45     -0.000241782516
  46      0.000101126350
  47     -0.000083831380
  48      0.000170220763
  49      0.000011535653
  50      0.000040768568
  51      0.000075678618
  52     -0.000007419738
  53     -0.000002080138
  54      0.000006696448
  55     -0.000005338438
  56      0.000005169187
 Ene=  -0.58020135893377E+00
 Spin= Alpha
 Occup=    0.999022
   1     -0.000473058375
   2      0.001181195906
   3      0.000282124290
   4     -0.152663404568
   5      0.008890486016
   6     -0.169470786567
   7     -0.025717308571
   8      0.001393877378
   9     -0.028540866494
  10     -0.000217839612
  11     -0.014271794597
  12     -0.000753786921
  13      0.001522355401
  14     -0.015815768419
  15      0.000352495410
  16     -0.000711828690
  17     -0.000961842397
  18     -0.230356777503
  19      0.011224677905
  20     -0.255784367004
  21     -0.136147744964
  22      0.006668608515
  23     -0.151182219418
  24      0.000123560450
  25      0.010751439731
  26      0.000520515907
  27     -0.001018644933
  28      0.011920403627
  29     -0.072030512329
  30      0.148808088501
  31      0.170141789349
  32      0.092607321824
  33     -0.148048848655
  34      0.097535733137
  35      0.043767894616
  36     -0.082562782498
  37      0.045695412272
  38      0.001487082035
  39      0.004900701100
  40     -0.004853431836
  41     -0.001877636873
  42      0.005144656150
  43      0.072339739391
  44     -0.149410103355
  45     -0.170792896371
  46      0.094311714185
  47      0.138063069196
  48      0.110078556469
  49      0.044694895279
  50      0.077876782167
  51      0.052569495721
  52     -0.001373853662
  53      0.004551813243
  54      0.005327651022
  55      0.000905785815
  56      0.005335369652
 Ene=  -0.57468125543860E+00
 Spin= Alpha
 Occup=    0.000977
   1     -0.000016594747
   2      0.000041076665
   3      0.000000013715
   4      0.004788974612
   5     -0.000446179933
   6      0.007750729660
   7      0.000408453397
   8     -0.000080879028
   9      0.001519631528
  10     -0.000000483826
  11      0.000448372026
  12      0.000025522470
  13     -0.000064425289
  14      0.000649557787
  15     -0.000013611110
  16      0.000026365974
  17      0.000044271634
  18      0.006701658627
  19     -0.000436515471
  20      0.011203897819
  21      0.004219169255
  22     -0.000271293128
  23      0.006642666745
  24     -0.000003207061
  25     -0.000317707016
  26     -0.000017076579
  27      0.000043979281
  28     -0.000537123196
  29      0.002788186436
  30     -0.005768146692
  31     -0.006584183575
  32     -0.004259916143
  33      0.005505116001
  34     -0.003308816095
  35     -0.002105745048
  36      0.003186214525
  37     -0.001534483095
  38     -0.000005740568
  39     -0.000212188869
  40      0.000194019926
  41      0.000097090579
  42     -0.000172726766
  43     -0.002741419840
  44      0.005670609378
  45      0.006471905414
  46     -0.004067851505
  47     -0.005138257532
  48     -0.003764216775
  49     -0.002028901894
  50     -0.003012137754
  51     -0.001780210221
  52      0.000006553125
  53     -0.000194241277
  54     -0.000206141028
  55     -0.000064953069
  56     -0.000184682158
 Ene=  -0.56800424224962E+00
 Spin= Alpha
 Occup=    0.999966
   1      0.000134225481
   2     -0.000350977977
   3     -0.000058870080
   4     -0.165817914580
   5     -0.003383444090
   6      0.149166685983
   7     -0.068649352948
   8     -0.001589233047
   9      0.061739848966
  10     -0.000133508353
  11     -0.005105590946
  12     -0.000140761329
  13     -0.000430549597
  14      0.004575776876
  15      0.000323992378
  16     -0.000690639860
  17     -0.000934656872
  18     -0.161817318623
  19     -0.005448372068
  20      0.145459732782
  21     -0.092675560717
  22     -0.003169045384
  23      0.083308041734
  24      0.000109815561
  25      0.009576803181
  26      0.000317783243
  27      0.000669271726
  28     -0.008593639502
  29     -0.000277397632
  30      0.000561978482
  31      0.000751205571
  32     -0.097279523095
  33     -0.001950250705
  34      0.089184268499
  35     -0.053318049622
  36     -0.001091114312
  37      0.048839577711
  38      0.007208356403
  39     -0.003444444781
  40      0.000719087764
  41      0.004013231088