[Molden Format]
[Title]
generated by TRESC, imaginary part1 of MOs of job CO3
 
[Atoms] AU
 C   1   6    0.3364484192    5.8882927452    0.3891081484
 O   2   8    2.6974300312    5.9862747024    0.4085979628
 O   3   8   -0.7714112401    7.4618585764    1.8371371576
 O   4   8   -0.6184572465    4.2284969646   -1.0743142370
[GTO]
  1 0
 s  5 1.0
     1238.4016938000        0.0059599745
      186.2900499200        0.0422621111
       42.2511763500        0.1866575214
       11.6765579300        0.4675815865
        3.5930506500        0.4422897287
 s  1 1.0
        0.4024514700        1.0000000000
 s  1 1.0
        0.1309018300        1.0000000000
 p  3 1.0
        9.4680970600        0.0570294585
        2.0103545100        0.3130471495
        0.5477100500        0.7605135301
 p  1 1.0
        0.1526861400        1.0000000000
 d  1 1.0
        0.8000000000        1.0000000000
 
  2 0
 s  5 1.0
     2266.1767785000        0.0060711540
      340.8701019100        0.0417308970
       77.3631351700        0.1850777598
       21.4796449400        0.4668774046
        6.6589433100        0.4435718061
 s  1 1.0
        0.8097597600        1.0000000000
 s  1 1.0
        0.2553077200        1.0000000000
 p  3 1.0
       17.7215043200        0.0628680198
        3.8635505400        0.3334973703
        1.0480920900        0.7412421661
 p  1 1.0
        0.2764154400        1.0000000000
 d  1 1.0
        1.2000000000        1.0000000000
 
  3 0
 s  5 1.0
     2266.1767785000        0.0060711540
      340.8701019100        0.0417308970
       77.3631351700        0.1850777598
       21.4796449400        0.4668774046
        6.6589433100        0.4435718061
 s  1 1.0
        0.8097597600        1.0000000000
 s  1 1.0
        0.2553077200        1.0000000000
 p  3 1.0
       17.7215043200        0.0628680198
        3.8635505400        0.3334973703
        1.0480920900        0.7412421661
 p  1 1.0
        0.2764154400        1.0000000000
 d  1 1.0
        1.2000000000        1.0000000000
 
  4 0
 s  5 1.0
     2266.1767785000        0.0060711540
      340.8701019100        0.0417308970
       77.3631351700        0.1850777598
       21.4796449400        0.4668774046
        6.6589433100        0.4435718061
 s  1 1.0
        0.8097597600        1.0000000000
 s  1 1.0
        0.2553077200        1.0000000000
 p  3 1.0
       17.7215043200        0.0628680198
        3.8635505400        0.3334973703
        1.0480920900        0.7412421661
 p  1 1.0
        0.2764154400        1.0000000000
 d  1 1.0
        1.2000000000        1.0000000000
 
[5D]
[7F]
[9G]
[MO]
 Ene=  -0.19367826262224E+02
 Spin= Alpha
 Occup=    1.000000
   1      0.000326746729
   2      0.000542690384
   3      0.011726842556
   4     -0.000002283285
   5     -0.000197955602
   6     -0.000008767085
   7      0.000112297657
   8      0.013584304169
   9      0.000563840049
  10      0.000966179851
  11     -0.000051816868
  12      0.000550938729
  13     -0.001784372922
  14     -0.000153624254
  15      0.978744202419
  16      0.045396396237
  17     -0.034561831911
  18     -0.000025373810
  19     -0.003036701407
  20     -0.000125968541
  21      0.000065170076
  22      0.007852016539
  23      0.000325950485
  24     -0.000121418136
  25     -0.000005894720
  26      0.000221560144
  27      0.000160834420
  28      0.000011767110
  29     -0.001403367762
  30     -0.001220839503
  31      0.001958323371
  32      0.000370096354
  33     -0.000017170717
  34      0.000410586030
  35     -0.001350255709
  36     -0.001766917789
  37     -0.001557494423
  38     -0.000025415822
  39      0.000219797264
  40      0.000247061986
  41     -0.000022913772
  42      0.000251821987
  43     -0.001376466498
  44     -0.001214592741
  45      0.001959892004
  46     -0.000368487952
  47      0.000022946242
  48     -0.000409608225
  49      0.001319475399
  50     -0.001914911175
  51      0.001407169282
  52     -0.000029528560
  53     -0.000239222031
  54      0.000224544166
  55      0.000018253065
  56     -0.000257355108
 Ene=  -0.19344451621918E+02
 Spin= Alpha
 Occup=    0.000000
   1     -0.000000230093
   2     -0.000000421417
   3     -0.000008213699
   4     -0.000000000900
   5      0.000000109313
   6      0.000000005169
   7     -0.000000093168
   8     -0.000009779581
   9     -0.000000422888
  10     -0.000000643734
  11      0.000000038362
  12     -0.000000392495
  13      0.000001270389
  14      0.000000106380
  15     -0.000696861356
  16     -0.000032352447
  17      0.000024636472
  18      0.000000026241
  19      0.000002144798
  20      0.000000086465
  21     -0.000000048278
  22     -0.000005632436
  23     -0.000000228895
  24      0.000000186178
  25      0.000000008864
  26     -0.000000576557
  27      0.000000209069
  28      0.000000006694
  29      0.000007540745
  30      0.000001160989
  31     -0.000001589608
  32     -0.000000261726
  33      0.000000019017
  34     -0.000000314815
  35      0.000000990439
  36      0.000001261220
  37      0.000001146797
  38     -0.000000012489
  39     -0.000000164271
  40     -0.000000187357
  41      0.000000004863
  42     -0.000000163081
  43      0.000008705021
  44      0.000001215742
  45     -0.000001647492
  46      0.000000263497
  47     -0.000000008058
  48      0.000000317418
  49     -0.000000976841
  50      0.000001359238
  51     -0.000001047633
  52     -0.000000008179
  53      0.000000176432
  54     -0.000000171061
  55     -0.000000023934
  56      0.000000165992
 Ene=  -0.19322240311041E+02
 Spin= Alpha
 Occup=    0.000001
   1      0.000000086372
   2      0.000000254055
   3      0.000003035296
   4      0.000000064369
   5     -0.000000016914
   6      0.000000010332
   7      0.000003181665
   8     -0.000002002844
   9      0.000003583071
  10     -0.000000160609
  11      0.000000346358
  12     -0.000000341477
  13      0.000000155597
  14      0.000000330111
  15      0.000005763686
  16     -0.000000107304
  17      0.000000605923
  18      0.000000045512
  19      0.000000114698
  20      0.000000077834
  21     -0.000000653162
  22     -0.000000219675
  23     -0.000000764290
  24      0.000000036882
  25      0.000000068972
  26      0.000000092065
  27     -0.000000021074
  28      0.000000082661
  29      0.000297540723
  30      0.000013554180
  31     -0.000010964189
  32     -0.000000708892
  33      0.000000417886
  34     -0.000000438872
  35      0.000001620035
  36     -0.000001245262
  37      0.000001555966
  38     -0.000000098433
  39     -0.000000180522
  40     -0.000000091386
  41     -0.000000030119
  42     -0.000000129052
  43     -0.000009503498
  44     -0.000000786305
  45      0.000001921315
  46     -0.000000042180
  47     -0.000000123591
  48     -0.000000014126
  49      0.000000004323
  50      0.000001089267
  51     -0.000000002660
  52     -0.000000041040
  53      0.000000076113
  54     -0.000000054497
  55      0.000000145560
  56      0.000000098752
 Ene=  -0.19321227765826E+02
 Spin= Alpha
 Occup=    0.000001
   1      0.000000099369
   2      0.000000295437
   3      0.000003502984
   4     -0.000000053999
   5     -0.000000019098
   6     -0.000000008819
   7     -0.000002381901
   8     -0.000001987027
   9     -0.000002810575
  10     -0.000000196459
  11     -0.000000224494
  12     -0.000000423109
  13      0.000000229785
  14     -0.000000206102
  15      0.000006791324
  16     -0.000000117302
  17      0.000000700467
  18     -0.000000031312
  19      0.000000137900
  20     -0.000000049284
  21      0.000000479930
  22     -0.000000320749
  23      0.000000550588
  24      0.000000041485
  25     -0.000000058457
  26      0.000000099103
  27     -0.000000009644
  28     -0.000000066202
  29      0.000052482757
  30      0.000002056119
  31     -0.000000440386
  32     -0.000000100474
  33     -0.000000029811
  34     -0.000000092812
  35      0.000000340087
  36      0.000000771671
  37      0.000000414078
  38     -0.000000056185
  39     -0.000000099558
  40     -0.000000074010
  41      0.000000146573
  42     -0.000000095022
  43      0.000280143075
  44      0.000012689936
  45     -0.000010002931
  46      0.000000682769
  47      0.000000323479
  48      0.000000430986
  49     -0.000001562404
  50     -0.000000809479
  51     -0.000001562737
  52     -0.000000105441
  53      0.000000193320
  54     -0.000000086662
  55     -0.000000018264
  56      0.000000137998
 Ene=  -0.19310506967091E+02
 Spin= Alpha
 Occup=    0.999999
   1     -0.000106461679
   2     -0.000304714421
   3     -0.003724382388
   4     -0.000046363172
   5      0.000022428119
   6     -0.000050868048
   7     -0.004714962159
   8      0.002620513800
   9     -0.005156815612
  10      0.000107970996
  11     -0.000471577252
  12      0.000415588618
  13     -0.000244411681
  14     -0.000525972053
  15     -0.000593721076
  16      0.000427813006
  17     -0.000974486798
  18     -0.000083494281
  19     -0.000160739715
  20     -0.000097956356
  21      0.000977416355
  22      0.000318117480
  23      0.001096660382
  24     -0.000008607251
  25     -0.000108377126
  26     -0.000099064735
  27      0.000042811071
  28     -0.000121366327
  29     -0.404097039505
  30     -0.018446763855
  31      0.015021655744
  32      0.000733354178
  33     -0.000589558079
  34      0.000796011204
  35     -0.002046355497
  36      0.001793555059
  37     -0.002215983008
  38     -0.000025694754
  39      0.000083983097
  40     -0.000061272386
  41      0.000051445479
  42      0.000094824669
  43      0.042239141295
  44      0.002417170576
  45     -0.003694456470
  46      0.000088127945
  47      0.000200892400
  48      0.000104771136
  49     -0.000121545045
  50     -0.001595105564
  51     -0.000189003737
  52      0.000096811421
  53     -0.000099235289
  54      0.000086586149
  55     -0.000179239084
  56     -0.000119285855
 Ene=  -0.19309757207910E+02
 Spin= Alpha
 Occup=    0.999999
   1      0.000026383568
   2      0.000076571555
   3      0.000928524045
   4     -0.000008335789
   5     -0.000004834956
   6     -0.000009407559
   7     -0.000794164163
   8     -0.000552010276
   9     -0.000901764134
  10     -0.000029308678
  11     -0.000069375383
  12     -0.000112566509
  13      0.000079439363
  14     -0.000076274341
  15      0.000130934176
  16     -0.000107250377
  17      0.000245452861
  18     -0.000013317821
  19      0.000041817247
  20     -0.000013530521
  21      0.000162067659
  22     -0.000101041523
  23      0.000177152813
  24      0.000001502225
  25     -0.000020054809
  26      0.000022054170
  27     -0.000006023387
  28     -0.000021854667
  29      0.007985942324
  30      0.000262806082
  31      0.000146390458
  32     -0.000012684667
  33     -0.000019166403
  34     -0.000014867954
  35      0.000064663925
  36      0.000260432828
  37      0.000080599580
  38     -0.000019582464
  39     -0.000021591461
  40     -0.000017471444
  41      0.000038998262
  42     -0.000022008515
  43      0.082365068316
  44      0.003740118878
  45     -0.002974982215
  46      0.000150327895
  47      0.000098054242
  48      0.000170691568
  49     -0.000426497411
  50     -0.000262176369
  51     -0.000483334871
  52      0.000001570033
  53      0.000019980628
  54      0.000010443625
  55     -0.000006072882
  56      0.000022212124
 Ene=  -0.10455329174740E+02
 Spin= Alpha
 Occup=    1.000000
   1      0.963661623064
   2      0.051610353011
   3      0.001555742708
   4      0.000017635444
   5      0.000702040932
   6      0.000039183556
   7      0.000013019155
   8      0.000593417456
   9      0.000026363401
  10     -0.001118182013
  11     -0.000134846917
  12      0.003888077759
  13      0.001109589786
  14      0.000063776729
  15     -0.000019320781
  16      0.000422272569
  17     -0.009724639067
  18      0.000009675352
  19      0.001229084702
  20      0.000050197813
  21      0.000062343348
  22      0.007456420576
  23      0.000311742210
  24      0.000762784320
  25     -0.000022516517
  26      0.000021606373
  27     -0.001321541576
  28     -0.000109737635
  29      0.000010626886
  30      0.000690328546
  31     -0.009522027420
  32      0.000714765218
  33     -0.000633337354
  34      0.000773582242
  35      0.004681285557
  36     -0.003409160965
  37      0.005094469013
  38     -0.000064345551
  39      0.000921131639
  40     -0.001255621089
  41      0.000317850915
  42      0.001000094593
  43      0.000011320206
  44      0.000697555533
  45     -0.009504407529
  46     -0.000720731569
  47     -0.000555079328
  48     -0.000820541485
  49     -0.004722426663
  50     -0.002911981669
  51     -0.005348884151
  52     -0.000085473296
  53     -0.000808239389
  54     -0.001344234533
  55      0.000490045728
  56     -0.000917477495
 Ene=  -0.10455134892412E+02
 Spin= Alpha
 Occup=    0.000000
   1     -0.000176259881
   2     -0.000009438090
   3     -0.000000280298
   4     -0.000000001172
   5     -0.000000128101
   6     -0.000000007173
   7     -0.000000003397
   8     -0.000000108061
   9     -0.000000005401
  10      0.000000366789
  11      0.000000026546
  12     -0.000000691192
  13     -0.000000104473
  14     -0.000000008239
  15     -0.000000006747
  16     -0.000000072042
  17      0.000001773384
  18     -0.000000004710
  19     -0.000000225504
  20     -0.000000011146
  21     -0.000000008845
  22     -0.000001362165
  23     -0.000000055322
  24     -0.000000186512
  25     -0.000000003786
  26     -0.000000023466
  27      0.000000217039
  28      0.000000019878
  29     -0.000000002534
  30     -0.000000122772
  31      0.000001738173
  32     -0.000000178421
  33      0.000000118759
  34     -0.000000098170
  35     -0.000000830755
  36      0.000000620805
  37     -0.000000952993
  38     -0.000000138262
  39     -0.000000118890
  40      0.000000218599
  41     -0.000000145420
  42     -0.000000223139
  43     -0.000000003959
  44     -0.000000123215
  45      0.000001734562
  46      0.000000183025
  47      0.000000105288
  48      0.000000106711
  49      0.000000836454
  50      0.000000531657
  51      0.000000999865
  52     -0.000000141925
  53      0.000000101778
  54      0.000000227726
  55     -0.000000179802
  56      0.000000202255
 Ene=  -0.12374743560167E+01
 Spin= Alpha
 Occup=    1.000000
   1      0.062884915257
   2     -0.123710590968
   3     -0.003174261748
   4     -0.000473212807
   5     -0.032491732547
   6     -0.001586383385
   7     -0.000017685876
   8     -0.000572617236
   9     -0.000029630301
  10      0.003623461399
  11      0.000165758702
  12     -0.006124142252
  13     -0.004963373950
  14     -0.000360104924
  15      0.074531223189
  16     -0.150335807305
  17     -0.079059946198
  18      0.000378949241
  19      0.049491648466
  20      0.002176932272
  21      0.000090426881
  22      0.012964930786
  23      0.000518759299
  24      0.001913651598
  25      0.000061703644
  26     -0.002673083041
  27     -0.002738844181
  28     -0.000208070792
  29      0.032857295493
  30     -0.064305345594
  31     -0.034203819461
  32      0.015038917192
  33     -0.015502053225
  34      0.016165482826
  35      0.003913782576
  36     -0.004261865019
  37      0.004209599148
  38     -0.000034961170
  39      0.001762970356
  40     -0.001672355810
  41      0.000298666786
  42      0.001921059909
  43      0.032539528046
  44     -0.063677535115
  45     -0.033908829596
  46     -0.015103123920
  47     -0.013665072640
  48     -0.017298719203
  49     -0.003950588746
  50     -0.003815506862
  51     -0.004523160483
  52     -0.000072003273
  53     -0.001593067136
  54     -0.001826176907
  55      0.000623593234
  56     -0.001800075640
 Ene=  -0.12212250086906E+01
 Spin= Alpha
 Occup=    0.000000
   1      0.000003262383
   2     -0.000006329871
   3     -0.000000020578
   4      0.000000653257
   5     -0.000000813032
   6     -0.000000331632
   7     -0.000000260787
   8     -0.000000071362
   9      0.000000176731
  10     -0.000000597840
  11     -0.000000026766
  12     -0.000000476081
  13     -0.000000543444
  14     -0.000000051750
  15      0.000002812124
  16     -0.000005252917
  17     -0.000003554119
  18     -0.000004590221
  19      0.000002061486
  20      0.000000721817
  21      0.000000052200
  22      0.000000753018
  23      0.000000030324
  24      0.000000024753
  25      0.000000134382
  26     -0.000000223346
  27     -0.000000125984
  28     -0.000000036997
  29      0.000002037076
  30     -0.000004024902
  31     -0.000002271860
  32     -0.000052734818
  33     -0.000001063432
  34      0.000050417785
  35      0.000000912035
  36     -0.000000382112
  37     -0.000000275242
  38      0.000001525306
  39     -0.000000555858
  40      0.000000059982
  41      0.000000897598
  42      0.000000788784
  43      0.000002050617
  44     -0.000004092131
  45     -0.000002138661
  46      0.000055028423
  47     -0.000000718157
  48     -0.000050576936
  49     -0.000000879445
  50     -0.000000040859
  51      0.000000165941
  52      0.000001592379
  53      0.000000532810
  54      0.000000151478
  55      0.000000971757
  56     -0.000000667076
 Ene=  -0.10975853902624E+01
 Spin= Alpha
 Occup=    0.000001
   1     -0.000001874981
   2      0.000003853185
   3      0.000000315164
   4      0.000053008214
   5     -0.000006007913
   6     -0.000050334540
   7     -0.000020139565
   8     -0.000000399651
   9      0.000017748670
  10      0.000000390089
  11      0.000001320661
  12      0.000000716000
  13     -0.000000618555
  14     -0.000001185669
  15      0.000004374392
  16     -0.000009097402
  17     -0.000004940700
  18      0.000029477324
  19      0.000002014903
  20     -0.000026759088
  21      0.000006498028
  22      0.000000200749
  23     -0.000005941600
  24     -0.000000086255
  25     -0.000000718083
  26     -0.000000182055
  27      0.000000079974
  28      0.000000689743
  29     -0.000002656222
  30      0.000005206531
  31      0.000003257282
  32     -0.000061626865
  33      0.000000243398
  34      0.000054790959
  35      0.000003442659
  36      0.000000040916
  37     -0.000003646391
  38      0.000001706681
  39     -0.000000854034
  40      0.000000253406
  41      0.000000878106
  42      0.000000748789
  43     -0.000004942078
  44      0.000010044383
  45      0.000005433348
  46     -0.000062099060
  47      0.000000914917
  48      0.000058483416
  49      0.000004150402
  50      0.000000103638
  51     -0.000002760809
  52     -0.000001725440
  53     -0.000000713552
  54     -0.000000135158
  55     -0.000001125448
  56      0.000000788847
 Ene=  -0.10872534265147E+01
 Spin= Alpha
 Occup=    0.999999
   1      0.004122783493
   2     -0.008658374961
   3     -0.001064125269
   4      0.000010500257
   5      0.014122337409
   6      0.000579453044
   7      0.000004266985
   8      0.000814788382
   9      0.000008367807
  10     -0.000595189389
  11      0.000076159790
  12     -0.001328110672
  13      0.001307788708
  14      0.000122519361
  15     -0.010496143765
  16      0.021650635819
  17      0.012752522688
  18     -0.000041223152
  19     -0.004146675129
  20     -0.000281676245
  21     -0.000011411414
  22     -0.001162750782
  23     -0.000056520518
  24     -0.000060486178
  25     -0.000011923897
  26      0.000359187713
  27      0.000028305558
  28      0.000003117384
  29      0.008885612186
  30     -0.017837996469
  31     -0.010316911145
  32      0.003440464246
  33     -0.001625524091
  34      0.003801657057
  35      0.000990731838
  36     -0.000358339633
  37      0.001113660564
  38     -0.000086751723
  39      0.000216482321
  40     -0.000332120531
  41      0.000207435842
  42      0.000243582052
  43      0.008723907025
  44     -0.017517046240
  45     -0.010111953637
  46     -0.003458819895
  47     -0.001044229410
  48     -0.003848691117
  49     -0.000989491542
  50     -0.000219665372
  51     -0.001084508536
  52     -0.000092173940
  53     -0.000172047186
  54     -0.000343083677
  55      0.000243078007
  56     -0.000187039559
 Ene=  -0.10727099319990E+01
 Spin= Alpha
 Occup=    0.000008
   1      0.000000836812
   2     -0.000001979299
   3     -0.000000562954
   4     -0.000022419812
   5      0.000007189768
   6     -0.000019105326
   7     -0.000000365499
   8      0.000000175393
   9     -0.000002179779
  10     -0.000001452284
  11      0.000001609213
  12     -0.000000541745
  13     -0.000000237297
  14      0.000001703135
  15     -0.000004755668
  16      0.000009177132
  17      0.000006799458
  18      0.000001784302
  19     -0.000001933613
  20     -0.000003970714
  21     -0.000001102898
  22     -0.000000818429
  23     -0.000001161341
  24      0.000000132627
  25      0.000000203284
  26      0.000000372296
  27      0.000000018878
  28      0.000000414203
  29      0.000021592969
  30     -0.000043609330
  31     -0.000024685674
  32     -0.000045727022
  33     -0.000007292674
  34      0.000054740704
  35     -0.000000641741
  36     -0.000001812119
  37      0.000003782962
  38      0.000001500745
  39      0.000000261463
  40     -0.000000257315
  41      0.000000963584
  42      0.000001025081
  43     -0.000015323268
  44      0.000030833610
  45      0.000017495066
  46      0.000058534720
  47      0.000005310194
  48     -0.000042950540
  49      0.000002787594
  50      0.000001705803
  51     -0.000000515386
  52      0.000001536494
  53      0.000000836283
  54      0.000000488668
  55      0.000000890888
  56      0.000000365339
 Ene=  -0.10707726524660E+01
 Spin= Alpha
 Occup=    0.999992
   1      0.000071419618
   2     -0.000146824316
   3     -0.000025925384
   4      0.005734651517
   5     -0.000165478831
   6      0.006373533826
   7      0.000468805437
   8      0.000010866641
   9      0.000521834661
  10     -0.000006600972
  11     -0.000440243770
  12     -0.000037982263
  13      0.000055943556
  14     -0.000487908153
  15     -0.000149142126
  16      0.000306985695
  17      0.000193477235
  18      0.000989348876
  19     -0.000156337373
  20      0.001093394311
  21      0.000368350766
  22     -0.000056126884
  23      0.000407731035
  24     -0.000007025393
  25     -0.000110969430
  26     -0.000001091781
  27      0.000017634266
  28     -0.000122452920
  29     -0.005529331999
  30      0.011136555582
  31      0.006383823111
  32     -0.001719978044
  33      0.002039946551
  34     -0.001776087582
  35     -0.000435229590
  36      0.000581711021
  37     -0.000474843353
  38     -0.000004483261
  39     -0.000196964370
  40      0.000117976228
  41     -0.000003074974
  42     -0.000215832720
  43      0.005824623468
  44     -0.011728377664
  45     -0.006742509674
  46     -0.001864567998
  47     -0.001721388154
  48     -0.002195967812
  49     -0.000498224061
  50     -0.000542221096
  51     -0.000560776091
  52     -0.000003452587
  53     -0.000192691909
  54     -0.000154740688
  55      0.000052943389
  56     -0.000216020530
 Ene=  -0.62751501457174E+00
 Spin= Alpha
 Occup=    0.999998
   1      0.016080647906
   2     -0.039684054967
   3     -0.002103062760
   4     -0.000359688752
   5     -0.017822896991
   6     -0.001308756284
   7     -0.000032900575
   8     -0.001589507102
   9     -0.000258455851
  10      0.000434184102
  11     -0.000012474467
  12     -0.000549975251
  13     -0.000625901443
  14     -0.000156237012
  15     -0.013986650625
  16      0.029543953781
  17      0.031601273979
  18     -0.000060834379
  19      0.046002630879
  20     -0.000384233539
  21     -0.000050062651
  22      0.022375108708
  23     -0.000049173083
  24      0.001166899437
  25     -0.000043469850
  26      0.000657083747
  27     -0.002159773401
  28     -0.000102281212
  29     -0.008574878156
  30      0.017883764886
  31      0.017297904015
  32      0.008295547833
  33     -0.011559608697
  34      0.009084253108
  35      0.004118983407
  36     -0.006018516420
  37      0.004462003214
  38      0.000067278531
  39      0.000475497683
  40     -0.000394279568
  41     -0.000065227866
  42      0.000509103759
  43     -0.008089350943
  44      0.016874960334
  45      0.016191834012
  46     -0.007960775731
  47     -0.010466081602
  48     -0.008973746274
  49     -0.003983505955
  50     -0.005353036871
  51     -0.004533303288
  52      0.000053528255
  53     -0.000424316868
  54     -0.000396523380
  55      0.000022903983
  56     -0.000487211766
 Ene=  -0.61496180294800E+00
 Spin= Alpha
 Occup=    0.000006
   1     -0.000000169935
   2      0.000000403556
   3      0.000000045031
   4      0.000021948222
   5     -0.000001855066
   6     -0.000008750271
   7      0.000008683931
   8     -0.000000075399
   9     -0.000004236178
  10      0.000035042406
  11      0.000002130730
  12      0.000004469732
  13      0.000019973165
  14      0.000001628440
  15     -0.000000213647
  16      0.000000744382
  17      0.000000337546
  18      0.000060313525
  19      0.000001753670
  20     -0.000003767611
  21      0.000027042673
  22      0.000000894126
  23     -0.000001167003
  24      0.000000900166
  25     -0.000002396529
  26     -0.000000010182
  27      0.000000434594
  28      0.000000398949
  29      0.000003739242
  30     -0.000007934545
  31     -0.000008425165
  32      0.000387509195
  33      0.000010394422
  34     -0.000358918620
  35      0.000136545713
  36      0.000006011315
  37     -0.000126519724
  38     -0.000011864012
  39      0.000005775374
  40     -0.000000934754
  41     -0.000006545484
  42     -0.000005729132
  43     -0.000002992277
  44      0.000006224326
  45      0.000007022067
  46     -0.000383814277
  47     -0.000007400504
  48      0.000338105029
  49     -0.000132432813
  50     -0.000004860382
  51      0.000117243261
  52     -0.000010803570
  53     -0.000005015744
  54     -0.000001669418
  55     -0.000006525279
  56      0.000004000321
 Ene=  -0.58020135893377E+00
 Spin= Alpha
 Occup=    0.999022
   1      0.000965063012
   2     -0.002395697066
   3     -0.000177519875
   4     -0.113749995644
   5      0.008806231230
   6     -0.126233761831
   7     -0.019155047789
   8      0.001561091666
   9     -0.021252654833
  10     -0.000195463335
  11     -0.010632360076
  12     -0.000605750281
  13      0.001065758267
  14     -0.011791956314
  15      0.000231474502
  16     -0.000416476524
  17     -0.000908361838
  18     -0.171657205718
  19      0.007191925936
  20     -0.190688396302
  21     -0.101454125589
  22      0.004652818682
  23     -0.112691010945
  24      0.000075857374
  25      0.008011340400
  26      0.000401471604
  27     -0.000736806647
  28      0.008886437907
  29     -0.054792619368
  30      0.113184702118
  31      0.129386464965
  32      0.070683229110
  33     -0.110717873270
  34      0.075763439602
  35      0.033457533128
  36     -0.061749738827
  37      0.035548609656
  38      0.001098337909
  39      0.003679520303
  40     -0.003746405827
  41     -0.001315463234
  42      0.003880539423
  43      0.052806013280
  44     -0.109076216342
  45     -0.124711460425
  46      0.068646429427
  47      0.102788636629
  48      0.078958804182
  49      0.032485231613
  50      0.057956868139
  51      0.037678594428
  52     -0.001033272536
  53      0.003378014367
  54      0.003839932446
  55      0.000765990149
  56      0.003945933926
 Ene=  -0.57468125543860E+00
 Spin= Alpha
 Occup=    0.000977
   1     -0.000040628600
   2      0.000101253341
   3      0.000013859392
   4     -0.000705439156
   5     -0.000020923881
   6     -0.001074241731
   7     -0.000069141652
   8     -0.000007186727
   9     -0.000205852985
  10     -0.000051181319
  11     -0.000062893475
  12     -0.000008350697
  13     -0.000019522067
  14     -0.000094352135
  15      0.000000137884
  16     -0.000001342061
  17      0.000006838348
  18     -0.000962670120
  19      0.000114622939
  20     -0.001571796263
  21     -0.000606548216
  22      0.000056677807
  23     -0.000931315635
  24     -0.000000633707
  25      0.000046163248
  26      0.000001904593
  27     -0.000008635786
  28      0.000074769122
  29     -0.000356832480
  30      0.000738771367
  31      0.000843118693
  32     -0.000022874452
  33     -0.000779143533
  34      0.000872732036
  35      0.000042127315
  36     -0.000448573423
  37      0.000368926111
  38      0.000018791274
  39      0.000020836849
  40     -0.000021108463
  41     -0.000006938683
  42      0.000030791712
  43      0.000425055281
  44     -0.000878709918
  45     -0.001003054631
  46      0.001154289905
  47      0.000748523347
  48      0.000167173992
  49      0.000519517088
  50      0.000436051814
  51      0.000119823584
  52      0.000014470501
  53      0.000034522811
  54      0.000035676968
  55      0.000015168793
  56      0.000021788521
 Ene=  -0.56800424224962E+00
 Spin= Alpha
 Occup=    0.999966
   1      0.000174826761
   2     -0.000433195652
   3     -0.000122565479
   4      0.236853627741
   5      0.008149766297
   6     -0.212851170310
   7      0.098045022272
   8      0.003191214777
   9     -0.088128503752
  10      0.000241818541
  11      0.007288976786
  12      0.000274126755
  13      0.000512120502
  14     -0.006541199921
  15      0.000251780875
  16     -0.000532705820
  17     -0.000737493055
  18      0.231091965223
  19      0.006043419487
  20     -0.207776601974
  21      0.132354059986
  22      0.003442357063
  23     -0.118997014689
  24     -0.000205648735
  25     -0.013675682065
  26     -0.000469876178
  27     -0.000870435055
  28      0.012277926441
  29     -0.000224375133
  30      0.000459324306
  31      0.000576439782
  32      0.140756288476
  33      0.004858471048
  34     -0.125261324758
  35      0.077108883263
  36      0.002651261128
  37     -0.068638390380
  38     -0.010341660205
  39      0.004894459840
  40     -0.001139218867
  41     -0.005621837166