[Molden Format]
[Title]
generated by TRESC, imaginary part2 of MOs of job CO3
 
[Atoms] AU
 C   1   6    0.3364484192    5.8882927452    0.3891081484
 O   2   8    2.6974300312    5.9862747024    0.4085979628
 O   3   8   -0.7714112401    7.4618585764    1.8371371576
 O   4   8   -0.6184572465    4.2284969646   -1.0743142370
[GTO]
  1 0
 s  5 1.0
     1238.4016938000        0.0059599745
      186.2900499200        0.0422621111
       42.2511763500        0.1866575214
       11.6765579300        0.4675815865
        3.5930506500        0.4422897287
 s  1 1.0
        0.4024514700        1.0000000000
 s  1 1.0
        0.1309018300        1.0000000000
 p  3 1.0
        9.4680970600        0.0570294585
        2.0103545100        0.3130471495
        0.5477100500        0.7605135301
 p  1 1.0
        0.1526861400        1.0000000000
 d  1 1.0
        0.8000000000        1.0000000000
 
  2 0
 s  5 1.0
     2266.1767785000        0.0060711540
      340.8701019100        0.0417308970
       77.3631351700        0.1850777598
       21.4796449400        0.4668774046
        6.6589433100        0.4435718061
 s  1 1.0
        0.8097597600        1.0000000000
 s  1 1.0
        0.2553077200        1.0000000000
 p  3 1.0
       17.7215043200        0.0628680198
        3.8635505400        0.3334973703
        1.0480920900        0.7412421661
 p  1 1.0
        0.2764154400        1.0000000000
 d  1 1.0
        1.2000000000        1.0000000000
 
  3 0
 s  5 1.0
     2266.1767785000        0.0060711540
      340.8701019100        0.0417308970
       77.3631351700        0.1850777598
       21.4796449400        0.4668774046
        6.6589433100        0.4435718061
 s  1 1.0
        0.8097597600        1.0000000000
 s  1 1.0
        0.2553077200        1.0000000000
 p  3 1.0
       17.7215043200        0.0628680198
        3.8635505400        0.3334973703
        1.0480920900        0.7412421661
 p  1 1.0
        0.2764154400        1.0000000000
 d  1 1.0
        1.2000000000        1.0000000000
 
  4 0
 s  5 1.0
     2266.1767785000        0.0060711540
      340.8701019100        0.0417308970
       77.3631351700        0.1850777598
       21.4796449400        0.4668774046
        6.6589433100        0.4435718061
 s  1 1.0
        0.8097597600        1.0000000000
 s  1 1.0
        0.2553077200        1.0000000000
 p  3 1.0
       17.7215043200        0.0628680198
        3.8635505400        0.3334973703
        1.0480920900        0.7412421661
 p  1 1.0
        0.2764154400        1.0000000000
 d  1 1.0
        1.2000000000        1.0000000000
 
[5D]
[7F]
[9G]
[MO]
 Ene=   0.93273403769228E+00
 Spin= Alpha
 Occup=    0.000000
   1     -0.000003976695
   2      0.000133789881
   3      0.000083812168
   4     -0.000740446329
   5      0.000042658209
   6     -0.000822134710
   7      0.001077756505
   8     -0.000091054964
   9      0.001194359468
  10     -0.000010028636
  11      0.000715984718
  12      0.000067232465
  13     -0.000046829782
  14      0.000796824234
  15      0.000012088366
  16     -0.000050146051
  17      0.000003829939
  18     -0.000540954118
  19     -0.000073608108
  20     -0.000601407712
  21     -0.000924188909
  22      0.000210800488
  23     -0.001023362618
  24     -0.000004090167
  25     -0.000281710933
  26     -0.000013841053
  27      0.000029483101
  28     -0.000312298122
  29     -0.000627945068
  30      0.002976833641
  31     -0.002957172601
  32      0.001334076833
  33     -0.003823769924
  34      0.001380892083
  35     -0.002100679063
  36      0.004518395123
  37     -0.002214521500
  38     -0.000014855843
  39      0.000042704799
  40     -0.000078803603
  41      0.000040431341
  42      0.000047303717
  43      0.000648110647
  44     -0.003057920191
  45      0.002922241470
  46      0.001502607213
  47      0.003723871244
  48      0.001767245316
  49     -0.002347495766
  50     -0.004332477439
  51     -0.002721716258
  52      0.000018141157
  53      0.000032710046
  54      0.000086551820
  55     -0.000051145212
  56      0.000036013095
 Ene=   0.93447523046664E+00
 Spin= Alpha
 Occup=    0.000000
   1      0.000000265434
   2     -0.000003304291
   3      0.000000135646
   4      0.000384106563
   5     -0.000007424856
   6      0.000083355853
   7     -0.003227481346
   8      0.000001229328
   9      0.000558308454
  10     -0.017406668166
  11      0.000100754156
  12     -0.002133533600
  13     -0.009991161720
  14     -0.001121261890
  15      0.000000543989
  16     -0.000003630635
  17      0.000007193875
  18     -0.002088778253
  19      0.000000469781
  20      0.000420945424
  21      0.003244205839
  22     -0.000016453886
  23     -0.000353559788
  24      0.019914592206
  25     -0.000240025276
  26      0.002433801847
  27      0.011454726869
  28      0.000998135913
  29      0.000076398912
  30     -0.000360824535
  31      0.000974784482
  32     -0.500788869904
  33     -0.014723257227
  34      0.449697256954
  35      0.582662916980
  36      0.017093885177
  37     -0.522903370040
  38      0.012109399523
  39     -0.000586927177
  40      0.001501399614
  41      0.006962089924
  42      0.000924265465
  43     -0.000078409393
  44      0.000372055939
  45     -0.000986900563
  46      0.499216053679
  47      0.014721213887
  48     -0.449363774979
  49     -0.579227574710
  50     -0.017073975254
  51      0.521703523833
  52      0.012017521683
  53      0.000253176802
  54      0.001444104086
  55      0.006927155340
  56      0.000167378868
 Ene=   0.99688313069138E+00
 Spin= Alpha
 Occup=    0.000000
   1      0.000031945230
   2      0.000004023257
   3      0.000337654575
   4      0.044068964749
   5     -0.002999150674
   6      0.048917598557
   7     -0.212488572794
   8      0.014857024647
   9     -0.235824830676
  10     -0.000503293391
  11     -0.045791677066
  12     -0.002060850029
  13      0.004424701172
  14     -0.050773612765
  15      0.000315656438
  16     -0.001820360594
  17      0.000639574133
  18     -0.104410483033
  19      0.005176011482
  20     -0.115983729984
  21      0.209424759145
  22     -0.011844882166
  23      0.232561710495
  24      0.000274039222
  25      0.014164724717
  26      0.000604053098
  27     -0.001517147527
  28      0.015695024102
  29      0.001513011739
  30      0.001582259334
  31      0.102523707299
  32     -0.059469031846
  33      0.009305724693
  34     -0.065638494730
  35      0.111263922508
  36     -0.008264876814
  37      0.123363265396
  38     -0.000696454891
  39     -0.001577004696
  40      0.010269869098
  41     -0.000911908271
  42     -0.001440834396
  43     -0.001900670573
  44      0.000606565494
  45     -0.103901361322
  46     -0.060768148103
  47      0.000638554948
  48     -0.067711158350
  49      0.112777823023
  50     -0.010323884787
  51      0.125128397166
  52      0.000535861369
  53     -0.000626719311
  54     -0.010356304921
  55      0.001305472979
  56     -0.000988025783
 Ene=   0.10031455008697E+01
 Spin= Alpha
 Occup=    0.000000
   1      0.000001205615
   2      0.000020969081
   3     -0.000084712304
   4      0.000214140001
   5      0.000055501469
   6     -0.000229162481
   7     -0.003829516323
   8     -0.000413500220
   9      0.003615647283
  10     -0.000020790450
  11      0.000037593233
  12      0.000004807005
  13      0.000022092513
  14      0.000010675523
  15     -0.000010074373
  16      0.000058945083
  17      0.000075155742
  18     -0.001124790084
  19     -0.000053411118
  20      0.001098109762
  21      0.002473610170
  22      0.000153800382
  23     -0.002398790442
  24     -0.000000320844
  25      0.000076770857
  26      0.000014530763
  27      0.000014722268
  28     -0.000081041383
  29      0.000020324060
  30     -0.000116435805
  31      0.000045136906
  32     -0.001854244057
  33     -0.000175080189
  34      0.001585158379
  35      0.003447006086
  36      0.000333334473
  37     -0.003042906328
  38      0.000134405744
  39     -0.000034238842
  40      0.000010246929
  41      0.000069202234
  42      0.000046730151
  43      0.000021948069
  44     -0.000116307569
  45      0.000134681055
  46     -0.001548574543
  47     -0.000179488269
  48      0.001576096546
  49      0.003105050559
  50      0.000346714492
  51     -0.003034070018
  52     -0.000124872412
  53     -0.000041938968
  54     -0.000012325583
  55     -0.000080479013
  56      0.000021824409
 Ene=   0.10344696181201E+01
 Spin= Alpha
 Occup=    0.000000
   1      0.000000309938
   2      0.000004117310
   3     -0.000005216016
   4      0.000020298029
   5     -0.000001960326
   6      0.000042230379
   7      0.000022495758
   8      0.000013437971
   9     -0.000296209954
  10     -0.000041621877
  11     -0.000037249355
  12     -0.000002757263
  13     -0.000018314038
  14     -0.000044888589
  15      0.000001004567
  16     -0.000005516611
  17      0.000006038789
  18     -0.000002311225
  19      0.000002731111
  20     -0.000161967993
  21      0.000023298268
  22     -0.000009561959
  23      0.000304410515
  24      0.000015501143
  25      0.000008567406
  26      0.000002796136
  27      0.000007031122
  28      0.000020077586
  29      0.000006468444
  30     -0.000025429636
  31      0.000086949418
  32     -0.000525884833
  33      0.000032087192
  34      0.000388163315
  35      0.000550600233
  36     -0.000041991628
  37     -0.000346177774
  38      0.000012041138
  39     -0.000006134995
  40      0.000008090239
  41      0.000007586957
  42      0.000003808551
  43     -0.000003147781
  44      0.000008102752
  45     -0.000067919417
  46      0.000568576080
  47     -0.000020700333
  48     -0.000580854536
  49     -0.000649787153
  50      0.000020673984
  51      0.000720929947
  52      0.000023893818
  53      0.000005155151
  54     -0.000003229386
  55      0.000013946783
  56     -0.000006489564
 Ene=   0.10607181811674E+01
 Spin= Alpha
 Occup=    0.000000
   1     -0.002494832437
   2      0.035222471141
   3      0.142371642808
   4      0.000917404371
   5     -0.042582588185
   6     -0.001645103768
   7     -0.011400538401
   8      0.182273375025
   9      0.013239332246
  10      0.015881181059
  11     -0.002152701042
  12      0.022586640048
  13     -0.032140702707
  14     -0.003699060898
  15     -0.000315002209
  16     -0.002572296330
  17     -0.097145387519
  18     -0.006479431182
  19      0.020553861021
  20      0.001277050236
  21      0.012131879200
  22     -0.056443299306
  23     -0.003144388497
  24      0.003553226852
  25      0.001010689170
  26     -0.008582928510
  27     -0.004327227715
  28      0.000014877203
  29     -0.010531600800
  30      0.071789228093
  31     -0.106561256501
  32      0.015916515093
  33      0.101771522968
  34      0.029832079358
  35      0.004250465511
  36     -0.196093725541
  37     -0.018203877477
  38     -0.002247600424
  39     -0.005502401511
  40     -0.001276650815
  41      0.005305125973
  42     -0.005628720378
  43     -0.010865140194
  44      0.073104880761
  45     -0.110117160562
  46     -0.023538347482
  47      0.097618622554
  48     -0.014177364821
  49      0.010493090175
  50     -0.188454461667
  51     -0.011026619793
  52     -0.002637265083
  53      0.005349069620
  54     -0.000959305739
  55      0.003596686398
  56      0.006342190837
 Ene=   0.10752072605022E+01
 Spin= Alpha
 Occup=    0.000000
   1     -0.000027699816
   2      0.001499770484
   3      0.002930303084
   4      0.005243532523
   5     -0.001636742254
   6      0.005782942873
   7      0.004089275545
   8      0.004244436654
   9      0.004628963938
  10      0.000355686283
  11     -0.010659506370
  12      0.000811076244
  13      0.000269596530
  14     -0.011817671596
  15      0.000189129412
  16     -0.001262532195
  17     -0.000702892183
  18      0.046461017350
  19     -0.002503646138
  20      0.051560049252
  21     -0.070392111117
  22      0.002339528601
  23     -0.078166367417
  24     -0.000033206427
  25     -0.005028732911
  26     -0.000442592859
  27      0.000307126461
  28     -0.005595844331
  29     -0.001763693820
  30      0.012236287149
  31     -0.023369516627
  32     -0.035944335250
  33     -0.084559662318
  34     -0.046621617892
  35      0.055782772269
  36      0.108985109237
  37      0.069629924463
  38      0.002984121874
  39      0.003010348651
  40      0.003986720335
  41     -0.006337743190
  42      0.003067836724
  43      0.001641012440
  44     -0.010608185700
  45      0.019553776777
  46     -0.038367214981
  47      0.094945971905
  48     -0.035734933437
  49      0.056868755714
  50     -0.126503685548
  51      0.055178842823
  52     -0.003200133128
  53      0.003768589414
  54     -0.003721839755
  55      0.005953056260
  56      0.004462907803
 Ene=   0.10860074053795E+01
 Spin= Alpha
 Occup=    0.000000
   1      0.000002930283
   2     -0.000011544434
   3     -0.000126595993
   4      0.000370697386
   5      0.000023642573
   6     -0.000336813197
   7     -0.005891869349
   8     -0.000254060836
   9      0.005304923497
  10     -0.000015999550
  11      0.000181512449
  12      0.000009699390
  13      0.000030752790
  14     -0.000155731194
  15      0.000010122337
  16     -0.000057719104
  17      0.000128046468
  18     -0.000103440022
  19     -0.000038770560
  20      0.000095572627
  21      0.001879523984
  22      0.000086822470
  23     -0.001697816953
  24      0.000002232629
  25      0.000061654888
  26      0.000007473854
  27      0.000005656057
  28     -0.000056319364
  29      0.000010497439
  30     -0.000065707368
  31      0.000098590267
  32     -0.003840299920
  33     -0.000134496540
  34      0.003428121036
  35      0.006192903419
  36      0.000245230884
  37     -0.005572452003
  38      0.000247211445
  39     -0.000120819258
  40      0.000027101199
  41      0.000134393042
  42      0.000122924799
  43      0.000010008985
  44     -0.000061499761
  45      0.000096885097
  46     -0.003743518402
  47     -0.000144367460
  48      0.003404103983
  49      0.006114959187
  50      0.000255101593
  51     -0.005515938235
  52     -0.000246775237
  53     -0.000120081911
  54     -0.000032454552
  55     -0.000150018780
  56      0.000092833878
 Ene=   0.10988239290802E+01
 Spin= Alpha
 Occup=    0.000000
   1     -0.000017896651
   2      0.000274445902
   3      0.001045233706
   4     -0.000819621342
   5     -0.000113926557
   6     -0.000981399696
   7      0.001555453225
   8      0.000545175864
   9      0.002747025486
  10      0.000088680601
  11      0.001439244142
  12      0.000186235307
  13     -0.000289556396
  14      0.001581971100
  15     -0.000034331745
  16      0.000196105245
  17     -0.000745250309
  18     -0.000032918645
  19      0.000064830963
  20      0.000297939301
  21     -0.000449433157
  22     -0.000056053184
  23     -0.001162674114
  24      0.000009784000
  25     -0.000142072086
  26     -0.000048685101
  27      0.000004510664
  28     -0.000182894268
  29     -0.000062369034
  30      0.000056104561
  31     -0.000596164050
  32      0.001988641541
  33      0.002837530086
  34      0.002811179792
  35     -0.003134674985
  36     -0.003856818542
  37     -0.004494591832
  38     -0.000100966826
  39     -0.000131695584
  40     -0.000301086742
  41      0.000290482120
  42     -0.000126235799
  43     -0.000059755807
  44      0.000793013974
  45     -0.000950913630
  46      0.001839927573
  47     -0.002294327512
  48      0.002469189816
  49     -0.003257925793
  50      0.002716425679
  51     -0.004406313040
  52      0.000084021956
  53     -0.000111356958
  54      0.000275076929
  55     -0.000240842852
  56     -0.000118086318
 Ene=   0.11019760333208E+01
 Spin= Alpha
 Occup=    0.000000
   1     -0.000298627829
   2      0.004931038599
   3      0.018390041614
   4      0.028295722453
   5     -0.000927683810
   6     -0.025502048992
   7     -0.426603607514
   8     -0.003945587827
   9      0.383960550637
  10      0.000754929529
  11      0.003865966635
  12      0.001593749970
  13     -0.001394639887
  14     -0.003714267472
  15     -0.000744081207
  16      0.004615678288
  17     -0.013923583177
  18     -0.140448243650
  19     -0.003554550401
  20      0.126290374832
  21      0.280005496005
  22      0.008799467125
  23     -0.251684283576
  24      0.000287561165
  25      0.009806508670
  26     -0.000257615600
  27      0.000579983997
  28     -0.008778414072
  29     -0.001077441822
  30      0.007297044325
  31     -0.013509322972
  32     -0.215208041220
  33     -0.001508453295
  34      0.195284090103
  35      0.376857155453
  36      0.001132983841
  37     -0.335903416991
  38      0.016050399414
  39     -0.005650918220
  40      0.001692223912
  41      0.009068276640
  42      0.005016513882
  43     -0.001070409204
  44      0.007245891393
  45     -0.013405613401
  46     -0.217732484652
  47     -0.001395295706
  48      0.194350474240
  49      0.374552300920
  50      0.001283631329
  51     -0.340441357486
  52     -0.016259098667
  53     -0.004616194003
  54     -0.002229410489
  55     -0.009587962021
  56      0.004226998387
 Ene=   0.11338996985732E+01
 Spin= Alpha
 Occup=    0.000000
   1     -0.002833184794
   2      0.050206257459
   3      0.194159622016
   4      0.000024428810
   5      0.009661254582
   6      0.000648048634
   7      0.002219412398
   8      0.028707795863
   9     -0.000947665359
  10     -0.002993856544
  11     -0.000053494386
  12      0.000873432445
  13      0.004989173559
  14      0.000319242617
  15     -0.013092387546
  16      0.088954370631
  17     -0.192979843623
  18      0.000346535073
  19     -0.008272442678
  20     -0.001531250988
  21     -0.000262229963
  22      0.068286287864
  23      0.004947898426
  24     -0.001060563958
  25      0.000168829616
  26     -0.002785557033
  27      0.002409012438
  28      0.000346310052
  29     -0.008591979919
  30      0.056401599232
  31     -0.118302088285
  32     -0.002289875957
  33     -0.002143060232
  34     -0.004752093038
  35      0.021899512168
  36     -0.011735273940
  37      0.027634719122
  38      0.001643814530
  39     -0.000300940951
  40     -0.000467714528
  41     -0.002911715413
  42     -0.000564640197
  43     -0.008607653239
  44      0.056399928725
  45     -0.118236161135
  46      0.004498660472
  47     -0.003476861288
  48      0.002740541561
  49     -0.025696414534
  50     -0.007984241576
  51     -0.025167623174
  52      0.001833137104
  53      0.000245626632
  54     -0.000439362590
  55     -0.002896131974
  56      0.000048480319
 Ene=   0.11419015925149E+01
 Spin= Alpha
 Occup=    0.000000
   1     -0.000006612367
   2      0.000115288638
   3      0.000440894641
   4      0.000006873871
   5      0.000020163921
   6      0.000000025386
   7     -0.000061439053
   8      0.000053074714
   9      0.000036443117
  10     -0.000020380261
  11     -0.000003257853
  12      0.000001035921
  13      0.000002444379
  14     -0.000004733626
  15     -0.000029224125
  16      0.000197602028
  17     -0.000424127124
  18     -0.000034315810
  19     -0.000018293697
  20      0.000006616150
  21      0.000060005380
  22      0.000149987854
  23     -0.000006533160
  24      0.000012062960
  25      0.000003168385
  26     -0.000002793751
  27      0.000012808193
  28      0.000002248622
  29     -0.000019075239
  30      0.000127807028
  31     -0.000269322054
  32     -0.000230319954
  33     -0.000000597744
  34      0.000190654751
  35      0.000305565842
  36     -0.000032246553
  37     -0.000158218303
  38      0.000012208486
  39     -0.000001807606
  40      0.000000302130
  41     -0.000001226704
  42     -0.000000889926
  43     -0.000020608869
  44      0.000134039392
  45     -0.000283254018
  46      0.000180405310
  47     -0.000013126945
  48     -0.000148071332
  49     -0.000216474009
  50     -0.000009906276
  51      0.000084742756
  52      0.000008775354
  53      0.000000391536
  54     -0.000000824347
  55     -0.000004339001
  56      0.000000345325
 Ene=   0.14623720406283E+01
 Spin= Alpha
 Occup=    0.000000
   1      0.000041715555
   2     -0.000461799534
   3     -0.001137860469
   4      0.000004036757
   5      0.000929256481
   6      0.000035902085
   7      0.000028202737
   8      0.006737979461
   9      0.000265606324
  10     -0.000520385607
  11      0.000032803347
  12     -0.000524949355
  13      0.000369893542
  14      0.000023775096
  15     -0.000361978936
  16      0.002791835669
  17     -0.007768555260
  18      0.000000644403
  19     -0.000117597689
  20     -0.000005836288
  21      0.000024327706
  22      0.002416707772
  23      0.000106617057
  24     -0.000103441714
  25      0.000003034426
  26      0.000009893264
  27      0.000128003908
  28      0.000013264135
  29      0.000276639771
  30     -0.002111194556
  31      0.005218599769
  32      0.000122703915
  33      0.000508781383
  34      0.000400104399
  35     -0.001496442823
  36     -0.000797407211
  37     -0.002055885850
  38      0.000059179302
  39      0.000020283271
  40     -0.000105892636
  41      0.000028740781
  42      0.000084104887
  43      0.000271894883
  44     -0.002080160779
  45      0.005155385057
  46     -0.000133857926
  47      0.000538941976
  48     -0.000345577035
  49      0.001498672783
  50     -0.000996453192
  51      0.001958513328
  52      0.000053694587
  53     -0.000011172549
  54     -0.000108227758
  55      0.000042418420
  56     -0.000073101814
 Ene=   0.14626166866524E+01
 Spin= Alpha
 Occup=    0.000000
   1     -0.017612454889
   2      0.194672077961
   3      0.478280865501
   4     -0.001627451145
   5     -0.395211408657
   6     -0.014654288832
   7     -0.011253432410
   8     -2.862823203778
   9     -0.107071184825
  10      0.104394708571
  11     -0.010583953988
  12      0.208488328561
  13     -0.224027239544
  14     -0.023063569485
  15      0.154076008026
  16     -1.188092798738
  17      3.304599557205
  18      0.001214110985
  19      0.049883291264
  20      0.002998693718
  21     -0.012331473476
  22     -1.028116497296
  23     -0.044851759222
  24      0.035133215102
  25     -0.001249125818
  26     -0.006013691889
  27     -0.059460236010
  28     -0.004147888582
  29     -0.117020796721
  30      0.894505281010
  31     -2.216674340265
  32     -0.104228963179
  33     -0.216460781044
  34     -0.123411464389
  35      0.713496323881
  36      0.340000392797
  37      0.804341000484
  38     -0.003744790946
  39     -0.021646061479
  40      0.047159597567
  41     -0.001298968369
  42     -0.022641129394
  43     -0.115551288436
  44      0.882960968900
  45     -2.183493126724
  46      0.101863097101
  47     -0.228586944588
  48      0.105424786727
  49     -0.702804173787
  50      0.422834454986
  51     -0.768264360304
  52     -0.003920343451
  53      0.017676382233
  54      0.048586792321
  55     -0.005638770888
  56      0.020893771530
 Ene=   0.14880841142841E+01
 Spin= Alpha
 Occup=    0.000000
   1      0.000000016009
   2     -0.000001031859
   3     -0.000003760166
   4     -0.000106374399
   5      0.000001980560
   6      0.000073024753
   7      0.000096707896
   8      0.000048278064
   9     -0.000325799603
  10      0.142589711749
  11      0.000024811107
  12      0.017475280697
  13      0.082179138500
  14      0.004877473144
  15     -0.000002321024
  16      0.000016957062
  17     -0.000042806872
  18     -0.000182268464
  19     -0.000003911037
  20      0.000123080645
  21     -0.000596832660
  22     -0.000005363142
  23      0.000540592680
  24      0.016377827313
  25     -0.000863874250
  26      0.001979429384
  27      0.009396770632
  28      0.001258794575
  29      0.000027308680
  30     -0.000171689444
  31      0.000302567936
  32     -0.008547742959
  33     -0.000374362506
  34      0.007765730178
  35     -0.027882159877
  36     -0.000692293210
  37      0.024909143061
  38     -0.028510486038
  39      0.018315933121
  40     -0.002877719907
  41     -0.015406520777
  42     -0.017387610416
  43     -0.000024227548
  44      0.000149450069
  45     -0.000251365317
  46      0.008716706382
  47      0.000378360400
  48     -0.007748944980
  49      0.028044461589
  50      0.000696401319
  51     -0.025350891878
  52     -0.029610247415
  53     -0.017390879378
  54     -0.004218351131
  55     -0.018042660380
  56      0.014654299437
 Ene=   0.14887310005038E+01
 Spin= Alpha
 Occup=    0.000000
   1     -0.000008251462
   2     -0.000037651707
   3     -0.000209427449
   4     -0.000019565497
   5      0.000127008863
   6     -0.000019570858
   7     -0.000154238424
   8      0.001226615738
   9     -0.000112379924
  10     -0.000265731116
  11     -0.000039338023
  12     -0.000114053194
  13     -0.000038324826
  14      0.000073054926
  15     -0.000059400426
  16      0.000466932073
  17     -0.001352876017
  18     -0.000012541394
  19     -0.000012275001
  20     -0.000009510418
  21      0.000067411897
  22      0.000408317862
  23      0.000035005791
  24     -0.000040306548
  25      0.000017745821
  26      0.000014434822
  27      0.000010709679
  28     -0.000018992029
  29      0.000054696249
  30     -0.000420284484
  31      0.001108674792
  32      0.000106633641
  33      0.000090581769
  34      0.000104741496
  35     -0.000314806203
  36     -0.000111971415
  37     -0.000437609740
  38      0.000038624332
  39     -0.000015903389
  40     -0.000042575951
  41      0.000020332759
  42      0.000042856839
  43      0.000033299760
  44     -0.000254408529
  45      0.000629333780
  46     -0.000120406507
  47      0.000110761951
  48     -0.000093786752
  49      0.000240909947
  50     -0.000254009099
  51      0.000350260303
  52      0.000061633125
  53      0.000016921908
  54     -0.000034205175
  55      0.000031898222
  56     -0.000030191784
 Ene=   0.14919653109234E+01
 Spin= Alpha
 Occup=    0.000000
   1     -0.000063813504
   2      0.000718054549
   3      0.001677464354
   4      0.015883365578
   5     -0.001032803206
   6     -0.014416199263
   7     -0.044902248706
   8     -0.012916037427
   9      0.039328747136
  10     -0.002917640779
  11     -0.636531471436
  12     -0.020454761504
  13     -0.039755163127
  14      0.571524758810
  15      0.000613739545
  16     -0.004745343227
  17      0.013342166814
  18      0.053450166475
  19      0.001751874334
  20     -0.048075686732
  21      0.177775676121
  22      0.001072298284
  23     -0.159921200197
  24      0.003493009030
  25      0.187096079834
  26      0.006417464253
  27      0.012577105810
  28     -0.167953298626
  29     -0.000430501823
  30      0.003308621705
  31     -0.008231679781
  32     -0.028633424874
  33     -0.001657731904
  34      0.024922602645
  35     -0.050382301926
  36      0.000056075229
  37      0.050964752092
  38     -0.108167913207
  39     -0.015854138326
  40     -0.013469516208
  41     -0.063351977741
  42      0.010488733044
  43     -0.000464002545
  44      0.003565503080
  45     -0.008970036688
  46     -0.026997875930
  47     -0.001644619596
  48      0.025002787612
  49     -0.054183963111
  50      0.000239440486
  51      0.042994647944
  52      0.105497117618
  53     -0.019845910252
  54      0.012593051621
  55      0.059541995118
  56      0.021452504818
 Ene=   0.14934547967587E+01
 Spin= Alpha
 Occup=    0.000000
   1     -0.000001365330
   2      0.000008956872
   3      0.000022519733
   4     -0.000672348056
   5      0.000026382632
   6     -0.000746492581
   7     -0.004900463491
   8      0.000166311154
   9     -0.005446044396
  10      0.000001645244
  11      0.000487581688
  12      0.000030841214
  13     -0.000058543087
  14      0.000523641000
  15      0.000004106639
  16     -0.000031329909
  17      0.000095421499
  18     -0.000248777292
  19      0.000019139611
  20     -0.000274627632
  21      0.001113312365
  22     -0.000089761408
  23      0.001239632932
  24      0.000000009971
  25     -0.000093060445
  26     -0.000005287500
  27      0.000006500387
  28     -0.000098277082
  29      0.000339627739
  30     -0.002620815532
  31      0.007541216162
  32     -0.000119315850
  33     -0.000300434687
  34     -0.000145424390
  35     -0.000995921967
  36      0.001874641779
  37     -0.001048230318
  38     -0.000020275758
  39      0.000079244857
  40     -0.000059531077
  41      0.000048633443
  42      0.000090702257
  43     -0.000347626437
  44      0.002682363354
  45     -0.007690366351
  46     -0.000109008861
  47      0.000293754578
  48     -0.000109814958
  49     -0.001072362730
  50     -0.001739853717
  51     -0.001251199649
  52      0.000024564210
  53      0.000074947559
  54      0.000071196640
  55     -0.000061756669
  56      0.000080859910
 Ene=   0.14942839164630E+01
 Spin= Alpha
 Occup=    0.000000
   1     -0.000000713532
   2      0.000004368867
   3      0.000007102028
   4      0.000155259165
   5     -0.000004681700
   6     -0.000131348762
   7     -0.000144563144
   8     -0.000062250821
   9      0.000193853635
  10     -0.000125600034
  11     -0.004994323635
  12     -0.000178584058
  13     -0.000358652312
  14      0.004475561678
  15      0.000004376326
  16     -0.000030593186
  17      0.000070199961
  18      0.000698057647
  19      0.000019866221
  20     -0.000622628213
  21      0.001080822004
  22      0.000013048070
  23     -0.000989621278
  24      0.000015285645
  25      0.001443956665
  26      0.000047891420
  27      0.000090056973
  28     -0.001295773868
  29     -0.000005255986
  30      0.000038681526
  31     -0.000095949061
  32     -0.000129943251
  33     -0.000004942027
  34      0.000118462129
  35     -0.000510456073
  36     -0.000019787002
  37      0.000498978025
  38     -0.000862237036
  39     -0.000129864182
  40     -0.000107098320
  41     -0.000507286086