 Entering Link 1 = D:\Gaussian16W\G16W\l1.exe PID=      3832.
  
 Copyright (c) 1988,1990,1992,1993,1995,1998,2003,2009,2016,
            Gaussian, Inc.  All Rights Reserved.
  
 This is part of the Gaussian(R) 16 program.  It is based on
 the Gaussian(R) 09 system (copyright 2009, Gaussian, Inc.),
 the Gaussian(R) 03 system (copyright 2003, Gaussian, Inc.),
 the Gaussian(R) 98 system (copyright 1998, Gaussian, Inc.),
 the Gaussian(R) 94 system (copyright 1995, Gaussian, Inc.),
 the Gaussian 92(TM) system (copyright 1992, Gaussian, Inc.),
 the Gaussian 90(TM) system (copyright 1990, Gaussian, Inc.),
 the Gaussian 88(TM) system (copyright 1988, Gaussian, Inc.),
 the Gaussian 86(TM) system (copyright 1986, Carnegie Mellon
 University), and the Gaussian 82(TM) system (copyright 1983,
 Carnegie Mellon University). Gaussian is a federally registered
 trademark of Gaussian, Inc.
  
 This software contains proprietary and confidential information,
 including trade secrets, belonging to Gaussian, Inc.
  
 This software is provided under written license and may be
 used, copied, transmitted, or stored only in accord with that
 written license.
  
 The following legend is applicable only to US Government
 contracts under FAR:
  
                    RESTRICTED RIGHTS LEGEND
  
 Use, reproduction and disclosure by the US Government is
 subject to restrictions as set forth in subparagraphs (a)
 and (c) of the Commercial Computer Software - Restricted
 Rights clause in FAR 52.227-19.
  
 Gaussian, Inc.
 340 Quinnipiac St., Bldg. 40, Wallingford CT 06492
  
  
 ---------------------------------------------------------------
 Warning -- This program may not be used in any manner that
 competes with the business of Gaussian, Inc. or will provide
 assistance to any competitor of Gaussian, Inc.  The licensee
 of this program is prohibited from giving any competitor of
 Gaussian, Inc. access to this program.  By using this program,
 the user acknowledges that Gaussian, Inc. is engaged in the
 business of creating and licensing software in the field of
 computational chemistry and represents and warrants to the
 licensee that it is not a competitor of Gaussian, Inc. and that
 it will not use this program in any manner prohibited above.
 ---------------------------------------------------------------
  

 Cite this work as:
 Gaussian 16, Revision A.03,
 M. J. Frisch, G. W. Trucks, H. B. Schlegel, G. E. Scuseria, 
 M. A. Robb, J. R. Cheeseman, G. Scalmani, V. Barone, 
 G. A. Petersson, H. Nakatsuji, X. Li, M. Caricato, A. V. Marenich, 
 J. Bloino, B. G. Janesko, R. Gomperts, B. Mennucci, H. P. Hratchian, 
 J. V. Ortiz, A. F. Izmaylov, J. L. Sonnenberg, D. Williams-Young, 
 F. Ding, F. Lipparini, F. Egidi, J. Goings, B. Peng, A. Petrone, 
 T. Henderson, D. Ranasinghe, V. G. Zakrzewski, J. Gao, N. Rega, 
 G. Zheng, W. Liang, M. Hada, M. Ehara, K. Toyota, R. Fukuda, 
 J. Hasegawa, M. Ishida, T. Nakajima, Y. Honda, O. Kitao, H. Nakai, 
 T. Vreven, K. Throssell, J. A. Montgomery, Jr., J. E. Peralta, 
 F. Ogliaro, M. J. Bearpark, J. J. Heyd, E. N. Brothers, K. N. Kudin, 
 V. N. Staroverov, T. A. Keith, R. Kobayashi, J. Normand, 
 K. Raghavachari, A. P. Rendell, J. C. Burant, S. S. Iyengar, 
 J. Tomasi, M. Cossi, J. M. Millam, M. Klene, C. Adamo, R. Cammi, 
 J. W. Ochterski, R. L. Martin, K. Morokuma, O. Farkas, 
 J. B. Foresman, and D. J. Fox, Gaussian, Inc., Wallingford CT, 2016.
 
 ******************************************
 Gaussian 16:  EM64W-G16RevA.03 17-Dec-2016
                28-Jan-2025 
 ******************************************
 %mem=1500MB
 %nprocshared=4
 Will use up to    4 processors via shared memory.
 %chk=E:\TRESC\examples\carbene-3et\Gaussian\Scratch\CH2.chk
 --------------------------------------------------------
 # uhf/gen nosymm iop(3/32=2,3/27=9) int=nobasistransform
 --------------------------------------------------------
 1/38=1,172=1/1;
 2/12=2,15=1,17=6,18=5,40=1/2;
 3/5=7,11=2,25=1,27=9,30=1,32=2,60=-1,116=2/1,2,3;
 4//1;
 5/5=2,38=5/2;
 6/7=2,8=2,9=2,10=2,28=1/1;
 99/5=1,9=1/99;
 ---
 CH2
 ---
 Symbolic Z-matrix:
 Charge =  0 Multiplicity = 3
 C                     0.        0.        0.10307 
 H                     0.        0.99639  -0.30921 
 H                     0.       -0.99639  -0.30921 
 
                          Input orientation:                          
 ---------------------------------------------------------------------
 Center     Atomic      Atomic             Coordinates (Angstroms)
 Number     Number       Type             X           Y           Z
 ---------------------------------------------------------------------
      1          6           0        0.000000    0.000000    0.103070
      2          1           0        0.000000    0.996386   -0.309210
      3          1           0        0.000000   -0.996386   -0.309210
 ---------------------------------------------------------------------
                    Distance matrix (angstroms):
                    1          2          3
     1  C    0.000000
     2  H    1.078313   0.000000
     3  H    1.078313   1.992772   0.000000
 Symmetry turned off by external request.
 Stoichiometry    CH2(3)
 Framework group  C2V[C2(C),SGV(H2)]
 Deg. of freedom     2
 Full point group                 C2V     NOp   4
 Rotational constants (GHZ):        1722.8581674         252.5496828         220.2619999
 General basis read from cards:  (5D, 7F)
    24 basis functions,    39 primitive gaussians,    25 cartesian basis functions
     5 alpha electrons        3 beta electrons
       nuclear repulsion energy         6.1544914723 Hartrees.
 NAtoms=    3 NActive=    3 NUniq=    3 SFac= 1.00D+00 NAtFMM=   60 NAOKFM=F Big=F
 Integral buffers will be    131072 words long.
 Raffenetti 2 integral format.
 Two-electron integral symmetry is turned off.
 One-electron integrals computed using PRISM.
 NBasis=    24 RedAO= F EigKep=  0.00D+00  NBF=    24
 NBsUse=    24 1.00D-04 EigRej=  0.00D+00 NBFU=    24
 GSVD:  LWork=        -719 too small for GESVD, short by        3191 words or        3191 for optimal perf.
 ExpMin= 1.22D-01 ExpMax= 1.24D+03 ExpMxC= 1.86D+02 IAcc=3 IRadAn=         5 AccDes= 0.00D+00
 Harris functional with IExCor=  205 and IRadAn=       5 diagonalized for initial guess.
 HarFok:  IExCor=  205 AccDes= 0.00D+00 IRadAn=         5 IDoV= 1 UseB2=F ITyADJ=14
 ICtDFT=  3500011 ScaDFX=  1.000000  1.000000  1.000000  1.000000
 FoFCou: FMM=F IPFlag=           0 FMFlag=      100000 FMFlg1=           0
         NFxFlg=           0 DoJE=T BraDBF=F KetDBF=T FulRan=T
         wScrn=  0.000000 ICntrl=       500 IOpCl=  0 I1Cent=   200000004 NGrid=           0
         NMat0=    1 NMatS0=      1 NMatT0=    0 NMatD0=    1 NMtDS0=    0 NMtDT0=    0
 Symmetry not used in FoFCou.
 Initial guess <Sx>= 0.0000 <Sy>= 0.0000 <Sz>= 1.0000 <S**2>= 2.0000 S= 1.0000
 Keep R1 and R2 ints in memory in canonical form, NReq=917463.
 Requested convergence on RMS density matrix=1.00D-08 within 128 cycles.
 Requested convergence on MAX density matrix=1.00D-06.
 Requested convergence on             energy=1.00D-06.
 No special actions if energy rises.
 GSVD:  LWork=        -768 too small for GESVD, short by        3240 words or        3240 for optimal perf.
 SCF Done:  E(UHF) =  -38.8938220255     A.U. after   12 cycles
            NFock= 12  Conv=0.21D-08     -V/T= 1.9913
 <Sx>= 0.0000 <Sy>= 0.0000 <Sz>= 1.0000 <S**2>= 2.0164 S= 1.0055
 <L.S>= 0.000000000000E+00
 Annihilation of the first spin contaminant:
 S**2 before annihilation     2.0164,   after     2.0001

 **********************************************************************

            Population analysis using the SCF density.

 **********************************************************************

 Alpha  occ. eigenvalues --  -11.25917  -0.93525  -0.62059  -0.44986  -0.41170
 Alpha virt. eigenvalues --    0.20243   0.25476   0.56767   0.63455   0.65809
 Alpha virt. eigenvalues --    0.72378   0.85899   0.95547   1.39722   1.64364
 Alpha virt. eigenvalues --    1.68530   1.69285   2.04973   2.17402   2.36735
 Alpha virt. eigenvalues --    2.42697   2.57527   3.13260   3.41862
  Beta  occ. eigenvalues --  -11.20829  -0.76593  -0.58902
  Beta virt. eigenvalues --    0.13207   0.15696   0.22866   0.27460   0.61038
  Beta virt. eigenvalues --    0.75902   0.79382   0.82792   0.90902   0.99798
  Beta virt. eigenvalues --    1.45558   1.70654   1.72264   1.77900   2.16537
  Beta virt. eigenvalues --    2.27758   2.41755   2.46813   2.64558   3.16459
  Beta virt. eigenvalues --    3.45291
          Condensed to atoms (all electrons):
               1          2          3
     1  C    5.494904   0.380700   0.380700
     2  H    0.380700   0.511657  -0.020509
     3  H    0.380700  -0.020509   0.511657
          Atomic-Atomic Spin Densities.
               1          2          3
     1  C    2.287959  -0.031072  -0.031072
     2  H   -0.031072  -0.090505   0.008670
     3  H   -0.031072   0.008670  -0.090505
 Mulliken charges and spin densities:
               1          2
     1  C   -0.256304   2.225814
     2  H    0.128152  -0.112907
     3  H    0.128152  -0.112907
 Sum of Mulliken charges =   0.00000   2.00000
 Mulliken charges and spin densities with hydrogens summed into heavy atoms:
               1          2
     1  C    0.000000   2.000000
 Electronic spatial extent (au):  <R**2>=             24.0722
 Charge=              0.0000 electrons
 Dipole moment (field-independent basis, Debye):
    X=              0.0000    Y=              0.0000    Z=             -0.5862  Tot=              0.5862
 Quadrupole moment (field-independent basis, Debye-Ang):
   XX=             -8.0677   YY=             -5.9009   ZZ=             -7.6475
   XY=              0.0000   XZ=              0.0000   YZ=              0.0000
 Traceless Quadrupole moment (field-independent basis, Debye-Ang):
   XX=             -0.8623   YY=              1.3045   ZZ=             -0.4421
   XY=              0.0000   XZ=              0.0000   YZ=              0.0000
 Octapole moment (field-independent basis, Debye-Ang**2):
  XXX=              0.0000  YYY=              0.0000  ZZZ=             -0.9300  XYY=              0.0000
  XXY=              0.0000  XXZ=             -0.3143  XZZ=              0.0000  YZZ=              0.0000
  YYZ=             -0.9724  XYZ=              0.0000
 Hexadecapole moment (field-independent basis, Debye-Ang**3):
 XXXX=             -9.1248 YYYY=            -13.2937 ZZZZ=             -9.8769 XXXY=              0.0000
 XXXZ=              0.0000 YYYX=              0.0000 YYYZ=              0.0000 ZZZX=              0.0000
 ZZZY=              0.0000 XXYY=             -4.2906 XXZZ=             -3.1782 YYZZ=             -4.0551
 XXYZ=              0.0000 YYXZ=              0.0000 ZZXY=              0.0000
 N-N= 6.154491472316D+00 E-N=-1.030906670299D+02  KE= 3.923384519711D+01
                          Isotropic Fermi Contact Couplings
        Atom                 a.u.       MegaHertz       Gauss      10(-4) cm-1
     1  C(13)              0.90210     507.06427     180.93314     169.13843
     2  H(1)              -0.03089     -69.02956     -24.63146     -23.02578
     3  H(1)              -0.03089     -69.02956     -24.63146     -23.02578
 --------------------------------------------------------
       Center         ----  Spin Dipole Couplings  ----
                      3XX-RR        3YY-RR        3ZZ-RR
 --------------------------------------------------------
     1   Atom        0.649664     -1.024521      0.374857
     2   Atom       -0.065675      0.120802     -0.055127
     3   Atom       -0.065675      0.120802     -0.055127
 --------------------------------------------------------
                        XY            XZ            YZ
 --------------------------------------------------------
     1   Atom        0.000000      0.000000      0.000000
     2   Atom        0.000000      0.000000     -0.085366
     3   Atom        0.000000      0.000000      0.085366
 --------------------------------------------------------


 ---------------------------------------------------------------------------------
              Anisotropic Spin Dipole Couplings in Principal Axis System
 ---------------------------------------------------------------------------------

       Atom             a.u.   MegaHertz   Gauss  10(-4) cm-1        Axes

              Baa    -1.0245  -137.481   -49.057   -45.859  0.0000  1.0000  0.0000
     1 C(13)  Bbb     0.3749    50.302    17.949    16.779  0.0000  0.0000  1.0000
              Bcc     0.6497    87.179    31.108    29.080  1.0000  0.0000  0.0000
 
              Baa    -0.0897   -47.881   -17.085   -15.971  0.0000  0.3757  0.9267
     2 H(1)   Bbb    -0.0657   -35.041   -12.504   -11.688  1.0000  0.0000  0.0000
              Bcc     0.1554    82.922    29.589    27.660  0.0000  0.9267 -0.3757
 
              Baa    -0.0897   -47.881   -17.085   -15.971  0.0000 -0.3757  0.9267
     3 H(1)   Bbb    -0.0657   -35.041   -12.504   -11.688  1.0000  0.0000  0.0000
              Bcc     0.1554    82.922    29.589    27.660  0.0000  0.9267  0.3757
 

 ---------------------------------------------------------------------------------


 Test job not archived.
 1|1|UNPC-BATCOMPUTER|SP|UHF|Gen|C1H2(3)|DELL|28-Jan-2025|0||# uhf/gen 
 nosymm iop(3/32=2,3/27=9) int=nobasistransform||CH2||0,3|C,0,0.,0.,0.1
 0307|H,0,0.,0.996386,-0.30921|H,0,0.,-0.996386,-0.30921||Version=EM64W
 -G16RevA.03|HF=-38.893822|S2=2.016387|S2-1=0.|S2A=2.000074|RMSD=2.054e
 -009|Dipole=0.,0.,-0.2306183|Quadrupole=-0.6411331,0.9698306,-0.328697
 5,0.,0.,0.|PG=C02V [C2(C1),SGV(H2)]||@


 THE SECRET OF SUCCESS IN LIFE IS TO EAT WHAT YOU LIKE, AND LET THE FOOD
 FIGHT IT OUT INSIDE YOU. -- FROM A FORTUNE COOKIE
 Job cpu time:       0 days  0 hours  0 minutes  3.0 seconds.
 Elapsed time:       0 days  0 hours  0 minutes  1.5 seconds.
 File lengths (MBytes):  RWF=      6 Int=      0 D2E=      0 Chk=      1 Scr=      1
 Normal termination of Gaussian 16 at Tue Jan 28 07:47:41 2025.
