[Molden Format]
[Title]
generated by TRESC, real part2 of MOs of job CO3
 
[Atoms] AU
 C   1   6    0.3364484192    5.8882927452    0.3891081484
 O   2   8    2.6974300312    5.9862747024    0.4085979628
 O   3   8   -0.7714112401    7.4618585764    1.8371371576
 O   4   8   -0.6184572465    4.2284969646   -1.0743142370
[GTO]
  1 0
 s  5 1.0
     1238.4016938000        0.0059599745
      186.2900499200        0.0422621111
       42.2511763500        0.1866575214
       11.6765579300        0.4675815865
        3.5930506500        0.4422897287
 s  1 1.0
        0.4024514700        1.0000000000
 s  1 1.0
        0.1309018300        1.0000000000
 p  3 1.0
        9.4680970600        0.0570294585
        2.0103545100        0.3130471495
        0.5477100500        0.7605135301
 p  1 1.0
        0.1526861400        1.0000000000
 d  1 1.0
        0.8000000000        1.0000000000
 
  2 0
 s  5 1.0
     2266.1767785000        0.0060711540
      340.8701019100        0.0417308970
       77.3631351700        0.1850777598
       21.4796449400        0.4668774046
        6.6589433100        0.4435718061
 s  1 1.0
        0.8097597600        1.0000000000
 s  1 1.0
        0.2553077200        1.0000000000
 p  3 1.0
       17.7215043200        0.0628680198
        3.8635505400        0.3334973703
        1.0480920900        0.7412421661
 p  1 1.0
        0.2764154400        1.0000000000
 d  1 1.0
        1.2000000000        1.0000000000
 
  3 0
 s  5 1.0
     2266.1767785000        0.0060711540
      340.8701019100        0.0417308970
       77.3631351700        0.1850777598
       21.4796449400        0.4668774046
        6.6589433100        0.4435718061
 s  1 1.0
        0.8097597600        1.0000000000
 s  1 1.0
        0.2553077200        1.0000000000
 p  3 1.0
       17.7215043200        0.0628680198
        3.8635505400        0.3334973703
        1.0480920900        0.7412421661
 p  1 1.0
        0.2764154400        1.0000000000
 d  1 1.0
        1.2000000000        1.0000000000
 
  4 0
 s  5 1.0
     2266.1767785000        0.0060711540
      340.8701019100        0.0417308970
       77.3631351700        0.1850777598
       21.4796449400        0.4668774046
        6.6589433100        0.4435718061
 s  1 1.0
        0.8097597600        1.0000000000
 s  1 1.0
        0.2553077200        1.0000000000
 p  3 1.0
       17.7215043200        0.0628680198
        3.8635505400        0.3334973703
        1.0480920900        0.7412421661
 p  1 1.0
        0.2764154400        1.0000000000
 d  1 1.0
        1.2000000000        1.0000000000
 
[5D]
[7F]
[9G]
[MO]
 Ene=   0.95186854516411E+00
 Spin= Alpha
 Occup=    0.000000
   1      0.000008331311
   2     -0.001764193720
   3     -0.000651747387
   4      0.000042121511
   5     -0.000504206189
   6      0.000030711247
   7     -0.000076305696
   8      0.001377900533
   9     -0.000044594163
  10      0.000544383503
  11     -0.000076710686
  12     -0.000254971817
  13     -0.000885516741
  14     -0.000152842101
  15     -0.000500711569
  16      0.002317939096
  17     -0.001831539781
  18      0.000253266824
  19      0.003200081724
  20      0.000358850077
  21     -0.000300926119
  22     -0.004644251145
  23     -0.000452248588
  24      0.000022751472
  25     -0.000002418163
  26     -0.000008292786
  27     -0.000036486615
  28     -0.000004703935
  29      0.000038378284
  30     -0.000205314223
  31      0.000737734393
  32     -0.000153771261
  33     -0.000400481509
  34     -0.000135391220
  35     -0.000038191310
  36     -0.000221401546
  37     -0.000105013557
  38     -0.000022896091
  39     -0.000063606977
  40     -0.000048780373
  41      0.000054160455
  42     -0.000068538797
  43     -0.000027741495
  44      0.000111997018
  45      0.000393293997
  46     -0.000300268766
  47     -0.000169354270
  48     -0.000367718841
  49      0.000713598457
  50     -0.000764659437
  51      0.000803033725
  52     -0.000044009346
  53      0.000089760350
  54     -0.000076953924
  55      0.000086923631
  56      0.000103676829
 Ene=   0.95258530303504E+00
 Spin= Alpha
 Occup=    0.000000
   1      0.000048807667
   2     -0.002314534506
   3     -0.002009099602
   4     -0.000089748527
   5      0.000718056627
   6     -0.000075437071
   7      0.000413229346
   8     -0.002122455093
   9      0.000383555176
  10     -0.000112990790
  11      0.000178838536
  12     -0.001203111627
  13      0.000440355684
  14      0.000184065798
  15      0.000201218255
  16     -0.001027889805
  17      0.002394167144
  18      0.000060101396
  19     -0.000532104058
  20      0.000059559463
  21     -0.000373053035
  22      0.000837416315
  23     -0.000396258109
  24     -0.000026774962
  25     -0.000046711608
  26      0.000004938045
  27      0.000048021549
  28     -0.000048696715
  29     -0.000467840826
  30      0.002047928938
  31     -0.001142617165
  32      0.001746502333
  33     -0.001709525883
  34      0.001867255137
  35     -0.002399485444
  36      0.003406616513
  37     -0.002531698350
  38      0.000049030845
  39      0.000079307026
  40      0.000005970699
  41     -0.000092011344
  42      0.000082151591
  43     -0.000325242182
  44      0.001348475221
  45     -0.000051262334
  46     -0.001339523685
  47     -0.000639087952
  48     -0.001508657558
  49      0.001797015145
  50      0.002191614445
  51      0.002071231616
  52      0.000047056383
  53     -0.000073333420
  54      0.000037145033
  55     -0.000084364673
  56     -0.000086341815
 Ene=   0.99611360102676E+00
 Spin= Alpha
 Occup=    0.000000
   1     -0.000076494716
   2      0.000146393049
   3      0.005109117636
   4     -0.147049605259
   5      0.007123189227
   6     -0.163341396131
   7      0.705812943136
   8     -0.032308738443
   9      0.784145619321
  10      0.002425998368
  11      0.165635628018
  12      0.008472704633
  13     -0.017241509492
  14      0.183607395721
  15     -0.000197800561
  16      0.001228055663
  17     -0.005492587199
  18      0.294346260934
  19     -0.014928214750
  20      0.326925949267
  21     -0.607500230447
  22      0.031763103437
  23     -0.674737517813
  24     -0.000448160468
  25     -0.037396001952
  26     -0.002143496658
  27      0.003673593306
  28     -0.041480164549
  29      0.003448455347
  30     -0.050772473362
  31     -0.287001647643
  32      0.256905640666
  33      0.128782348193
  34      0.290932506891
  35     -0.463507075514
  36     -0.193941645509
  37     -0.523251064510
  38     -0.001336872255
  39      0.000092918813
  40     -0.043700196389
  41      0.011712322392
  42     -0.000679037915
  43     -0.004173285138
  44      0.055150962512
  45      0.281166992317
  46      0.254818218641
  47     -0.151747456220
  48      0.277641277242
  49     -0.460827156867
  50      0.234774977709
  51     -0.503791850953
  52      0.001326780822
  53     -0.003373042178
  54      0.043594215720
  55     -0.011347779039
  56     -0.002944877534
 Ene=   0.10241734975257E+01
 Spin= Alpha
 Occup=    0.000000
   1     -0.000130504491
   2      0.001568528597
   3      0.008957523784
   4      0.000002988416
   5     -0.002964170035
   6     -0.000128948202
   7     -0.000166035973
   8      0.014468077995
   9      0.000814797492
  10      0.001071278620
  11     -0.000086532884
  12      0.001202031201
  13     -0.001966973459
  14     -0.000180606513
  15     -0.000023610117
  16     -0.000097131143
  17     -0.007648810545
  18     -0.000077751841
  19      0.001754287057
  20      0.000226498300
  21      0.000153103180
  22     -0.004331714829
  23     -0.000428191860
  24      0.000217086542
  25      0.000022638204
  26     -0.000561172283
  27     -0.000315915616
  28     -0.000029765862
  29     -0.000750259917
  30      0.004860803881
  31     -0.006253568345
  32      0.002243896064
  33      0.006567764075
  34      0.001376405997
  35     -0.001623511767
  36     -0.013371983682
  37     -0.000952762094
  38     -0.000188381865
  39     -0.000350913459
  40     -0.000081459052
  41      0.000325823831
  42     -0.000377936824
  43     -0.000748040846
  44      0.004844875834
  45     -0.006233159374
  46     -0.002405776043
  47      0.006828061711
  48     -0.000719006227
  49      0.001921805984
  50     -0.013606570250
  51     -0.000394922549
  52     -0.000202205974
  53      0.000368403166
  54     -0.000055032734
  55      0.000253550652
  56      0.000435898959
 Ene=   0.10384508001324E+01
 Spin= Alpha
 Occup=    0.000000
   1     -0.011299866235
   2      0.165317960823
   3      0.772531187764
   4     -0.001608796336
   5     -0.238607951364
   6     -0.009667400508
   7      0.010050506793
   8      1.085370317207
   9      0.046894351347
  10      0.086861996437
  11     -0.007738664298
  12      0.122147963069
  13     -0.175771709744
  14     -0.015476564767
  15     -0.011229538536
  16      0.039659634212
  17     -0.632084797267
  18      0.005748194281
  19      0.155688384980
  20      0.012704466239
  21     -0.009296374600
  22     -0.355897609317
  23     -0.023737167277
  24      0.018580685781
  25      0.000957968442
  26     -0.043382666960
  27     -0.022893928998
  28     -0.002071658723
  29     -0.052798134980
  30      0.361220569574
  31     -0.528495896499
  32      0.092956594448
  33      0.517912939033
  34      0.120089378901
  35     -0.024472448941
  36     -1.056112808847
  37     -0.061498063317
  38     -0.014251022406
  39     -0.029297938143
  40     -0.007948459931
  41      0.028230915995
  42     -0.031071022319
  43     -0.052569223653
  44      0.359841835393
  45     -0.523415822959
  46     -0.089409451244
  47      0.541597380239
  48     -0.081906661084
  49      0.015375688179
  50     -1.076582965647
  51     -0.017925953539
  52     -0.013988566194
  53      0.031206205301
  54     -0.005308718106
  55      0.023288397911
  56      0.036069624540
 Ene=   0.10577139920470E+01
 Spin= Alpha
 Occup=    0.000000
   1     -0.000204038450
   2      0.003155869650
   3      0.013413286513
   4      0.017404224906
   5     -0.004355190185
   6      0.019252915559
   7     -0.224378756885
   8      0.028440084953
   9     -0.249205266594
  10      0.001089041197
  11      0.000331579875
  12      0.001683729014
  13     -0.002233792741
  14      0.000291231834
  15     -0.000171400190
  16      0.000699910824
  17     -0.010288844808
  18     -0.402354658110
  19      0.023106936984
  20     -0.446959885869
  21      0.646754842688
  22     -0.038566880131
  23      0.718482313132
  24      0.000869652176
  25      0.042831575457
  26      0.001401730512
  27     -0.004618436208
  28      0.047453054156
  29     -0.000291911769
  30      0.004594313939
  31      0.128908584916
  32      0.149146230264
  33      0.449038669307
  34      0.180029092843
  35     -0.199194462381
  36     -0.625956694532
  37     -0.241165389332
  38     -0.018993642892
  39     -0.019226658000
  40     -0.009237863100
  41      0.036037314979
  42     -0.019398007447
  43     -0.001568118848
  44      0.008082533003
  45     -0.147977026173
  46      0.139157097158
  47     -0.449017722211
  48      0.140120614748
  49     -0.189098060106
  50      0.614684385914
  51     -0.190135341635
  52      0.018066773084
  53     -0.020012362052
  54      0.007166276443
  55     -0.031426371403
  56     -0.024078513234
 Ene=   0.10581066155869E+01
 Spin= Alpha
 Occup=    0.000000
   1     -0.000005427749
   2      0.000091881203
   3      0.000347173729
   4      0.001006190596
   5     -0.000032180065
   6     -0.001034161206
   7     -0.019425299437
   8      0.000074258062
   9      0.010284983672
  10      0.000027603211
  11      0.000930429633
  12      0.000080996951
  13     -0.000119479969
  14      0.000855861545
  15     -0.000007237075
  16      0.000041101779
  17     -0.000276473317
  18     -0.017064253339
  19      0.000304657012
  20     -0.003648211460
  21      0.027878930613
  22     -0.000438937768
  23      0.004270937342
  24      0.000026017678
  25      0.001305191339
  26      0.000042386051
  27     -0.000068619152
  28      0.000641972191
  29     -0.000088743343
  30      0.000376451969
  31      0.002190312483
  32     -0.001569505139
  33      0.011279349204
  34      0.011602734230
  35      0.005438635877
  36     -0.015782531105
  37     -0.019286625252
  38      0.000072703363
  39     -0.000624154564
  40     -0.000331880480
  41      0.001313233061
  42     -0.000385228885
  43      0.000042801171
  44     -0.000065634118
  45     -0.002676576737
  46     -0.001733459654
  47     -0.011850342066
  48      0.010530745164
  49      0.005597789736
  50      0.016562466654
  51     -0.017906457066
  52     -0.000095488409
  53     -0.000648939576
  54      0.000270218770
  55     -0.001211596290
  56     -0.000575448670
 Ene=   0.10754517055874E+01
 Spin= Alpha
 Occup=    0.000000
   1     -0.000075977434
   2      0.001556042069
   3      0.004199441481
   4      0.062155456821
   5      0.002176094319
   6     -0.055852975384
   7     -0.898114492787
   8     -0.027022985020
   9      0.807392473263
  10     -0.000115419270
  11      0.007360547554
  12      0.000312952338
  13      0.000718034462
  14     -0.006612562425
  15     -0.000341396150
  16      0.002250923126
  17     -0.003910683733
  18     -0.399353789550
  19     -0.011982900260
  20      0.359065470303
  21      0.710589443555
  22      0.022634348643
  23     -0.638830745949
  24      0.000377707001
  25      0.021504789373
  26      0.000716161731
  27      0.001566378416
  28     -0.019297044009
  29     -0.000216966282
  30      0.001417959849
  31     -0.002970309469
  32     -0.391924338129
  33     -0.012128733029
  34      0.351882083517
  35      0.723968227788
  36      0.021986409360
  37     -0.649207978020
  38      0.033993859314
  39     -0.008031239860
  40      0.003882678505
  41      0.018981669294
  42      0.008396281130
  43     -0.000212782153
  44      0.001390159352
  45     -0.002943187625
  46     -0.389891620200
  47     -0.011945139562
  48      0.350824990576
  49      0.720549377173
  50      0.021805945009
  51     -0.649214795052
  52     -0.034128025240
  53     -0.007249378230
  54     -0.004447087787
  55     -0.020216688307
  56      0.005311877135
 Ene=   0.11105274097531E+01
 Spin= Alpha
 Occup=    0.000000
   1      0.000145371017
   2     -0.001488390454
   3     -0.007208837429
   4      0.000017121478
   5     -0.000202302992
   6     -0.000023938436
   7     -0.000273893817
   8     -0.000885462369
   9      0.000187077719
  10     -0.000222503709
  11     -0.000011952663
  12      0.000240410775
  13      0.000169689202
  14      0.000010575381
  15      0.000604567168
  16     -0.003788657809
  17      0.007143268304
  18     -0.000188481934
  19     -0.000614785584
  20      0.000136480237
  21      0.000268251180
  22     -0.001216806486
  23     -0.000292137551
  24      0.000058355756
  25      0.000002700329
  26      0.000132185221
  27     -0.000072255800
  28     -0.000014548218
  29      0.000414769019
  30     -0.002650524165
  31      0.005067189031
  32     -0.000788968430
  33      0.000196765896
  34      0.000439077959
  35      0.000086255780
  36      0.000475126073
  37     -0.001448309753
  38     -0.000029743022
  39      0.000040234029
  40      0.000046181220
  41      0.000115937207
  42      0.000063245854
  43      0.000412418545
  44     -0.002639003880
  45      0.005045736737
  46      0.000609971962
  47      0.000211088906
  48     -0.000276167697
  49      0.000281673413
  50      0.000369759107
  51      0.001180324088
  52     -0.000049196081
  53     -0.000041573392
  54      0.000039049012
  55      0.000114738844
  56     -0.000043996159
 Ene=   0.11185545768046E+01
 Spin= Alpha
 Occup=    0.000000
   1      0.000219996507
   2     -0.003616937334
   3     -0.013765086069
   4     -0.000050166864
   5      0.000711427603
   6     -0.000032443502
   7      0.000107151400
   8     -0.003712983459
   9      0.000014067406
  10     -0.000369473305
  11      0.000142947558
  12     -0.000835609509
  13      0.000807441746
  14      0.000180650531
  15      0.000706469970
  16     -0.004419953463
  17      0.010671388410
  18      0.000095700392
  19     -0.000346949824
  20      0.000096612654
  21     -0.000202580219
  22     -0.001400898139
  23     -0.000275473331
  24     -0.000029268573
  25     -0.000035776406
  26      0.000318741483
  27     -0.000012889649
  28     -0.000029158757
  29      0.000690361512
  30     -0.004817275264
  31      0.009823699663
  32     -0.000001113481
  33     -0.002015775576
  34     -0.000059308260
  35     -0.001923619787
  36      0.004729055128
  37     -0.001997667492
  38     -0.000020198379
  39      0.000164643910
  40      0.000054612775
  41      0.000011903906
  42      0.000188418184
  43      0.000691862775
  44     -0.004771995548
  45      0.009797338701
  46      0.000160813489
  47     -0.002090156629
  48      0.000113604622
  49      0.001642009328
  50      0.004610573366
  51      0.001969530552
  52     -0.000019095328
  53     -0.000176102435
  54      0.000071549579
  55      0.000027663511
  56     -0.000193741756
 Ene=   0.11357288112298E+01
 Spin= Alpha
 Occup=    0.000000
   1      0.051481925596
   2     -0.873443038601
   3     -3.245512820609
   4     -0.001277276446
   5     -0.128254896575
   6     -0.005656949250
   7     -0.005371258227
   8     -0.258528727440
   9     -0.009834627553
  10      0.045282600121
  11      0.000270570729
  12     -0.029167381791
  13     -0.072047166896
  14     -0.005474439506
  15      0.207619188606
  16     -1.394053926564
  17      2.957458725321
  18      0.000203501013
  19      0.124948720703
  20      0.005688904723
  21     -0.007418885301
  22     -1.048481010306
  23     -0.044961717484
  24      0.015219711897
  25     -0.002452861708
  26      0.044106737755
  27     -0.035567733834
  28     -0.003538014742
  29      0.147109093603
  30     -0.985224337277
  31      2.118247962260
  32      0.069095295653
  33      0.051036131490
  34      0.079848072717
  35     -0.458632986823
  36      0.168896849508
  37     -0.507202812735
  38     -0.029946434159
  39      0.005736116947
  40      0.006364468131
  41      0.050207504639
  42      0.009937453519
  43      0.146678851080
  44     -0.982817639635
  45      2.112926327034
  46     -0.069177917301
  47      0.057480939320
  48     -0.073735485205
  49      0.461902673800
  50      0.121884411071
  51      0.515154177197
  52     -0.030083555687
  53     -0.004864611084
  54      0.005962111431
  55      0.050848945893
  56     -0.001841895974
 Ene=   0.11564311659432E+01
 Spin= Alpha
 Occup=    0.000000
   1     -0.000000091165
   2      0.000003467223
   3      0.000009147382
   4      0.000095648397
   5      0.000001421747
   6      0.000000671581
   7     -0.000857864647
   8     -0.000004440747
   9      0.000259648778
  10     -0.000001890184
  11     -0.000060864046
  12     -0.000003727943
  13      0.000010271182
  14     -0.000080163950
  15     -0.000000691425
  16      0.000005560368
  17     -0.000012440387
  18     -0.000605605660
  19      0.000001382542
  20      0.000007610480
  21      0.000983161727
  22      0.000000719650
  23      0.000023321956
  24      0.000000114427
  25      0.000052149183
  26      0.000002306898
  27     -0.000002827472
  28      0.000029527550
  29      0.000014849037
  30     -0.000068249780
  31      0.000190520062
  32     -0.000239019674
  33      0.000258761031
  34      0.000253749557
  35      0.000458699681
  36     -0.000308111425
  37     -0.000421526324
  38      0.000017428174
  39     -0.000006595505
  40      0.000010572550
  41      0.000027082937
  42     -0.000005974003
  43     -0.000015303090
  44      0.000070877512
  45     -0.000197333015
  46     -0.000252807228
  47     -0.000281710403
  48      0.000244038200
  49      0.000472707721
  50      0.000344242415
  51     -0.000408638743
  52     -0.000017635998
  53     -0.000006368397
  54     -0.000011150127
  55     -0.000026761582
  56     -0.000010767119
 Ene=   0.14550806782331E+01
 Spin= Alpha
 Occup=    0.000000
   1     -0.013086166159
   2      0.130146510429
   3      0.299478359322
   4     -0.003257141045
   5     -0.366152437918
   6     -0.015544752919
   7     -0.025236843747
   8     -2.584122512753
   9     -0.112892993560
  10      0.094771136696
  11     -0.008865851704
  12      0.190966234006
  13     -0.203723588810
  14     -0.018854714979
  15      0.150833246848
  16     -1.147822935472
  17      3.121363652942
  18      0.000172232076
  19      0.053996001696
  20      0.001852507739
  21     -0.007678538035
  22     -0.982697906580
  23     -0.038849341619
  24      0.031642346482
  25     -0.001191826627
  26     -0.003496211171
  27     -0.053908812431
  28     -0.004183404145
  29     -0.098324499242
  30      0.758066048021
  31     -1.889612805996
  32     -0.086944703378
  33     -0.181761832404
  34     -0.102489017719
  35      0.619226618958
  36      0.306569214971
  37      0.698032586782
  38     -0.007124862113
  39     -0.018499301077
  40      0.046136752072
  41      0.004290809901
  42     -0.018762920694
  43     -0.098923958642
  44      0.762686442732
  45     -1.904245433708
  46      0.084231481289
  47     -0.189804240128
  48      0.087627242608
  49     -0.615409496783
  50      0.368196582312
  51     -0.673268877256
  52     -0.007025890081
  53      0.015074405231
  54      0.047943811987
  55      0.000213862253
  56      0.018443182204
 Ene=   0.14754802323485E+01
 Spin= Alpha
 Occup=    0.000000
   1      0.000000081744
   2     -0.000000473677
   3     -0.000000167025
   4     -0.000000242955
   5      0.000001044938
   6     -0.000032537144
   7     -0.000013972071
   8      0.000012359713
   9     -0.000289552068
  10     -0.000246968069
  11     -0.000020427537
  12     -0.000028253138
  13     -0.000179170978
  14      0.000434567071
  15      0.000000032883
  16     -0.000000293224
  17      0.000000576879
  18     -0.000046699391
  19      0.000003401478
  20     -0.000079518686
  21      0.000051573153
  22     -0.000000895629
  23      0.000005554615
  24     -0.000026731366
  25     -0.000016411851
  26     -0.000004925940
  27     -0.000005696774
  28     -0.000112963273
  29     -0.000025442210
  30      0.000103160917
  31      0.000106089744
  32      0.000196188318
  33     -0.000060645517
  34     -0.000143003177
  35     -0.000254118685
  36      0.000057143218
  37      0.000085011435
  38     -0.000034702992
  39     -0.000052690733
  40     -0.000009756962
  41      0.000034341724
  42     -0.000005002450
  43      0.000025373459
  44     -0.000102641875
  45     -0.000106163643
  46      0.000177118138
  47      0.000069422870
  48     -0.000119815197
  49     -0.000358420995
  50     -0.000064388209
  51      0.000173478294
  52      0.000140246968
  53      0.000009088162
  54      0.000020597517
  55      0.000033092355
  56     -0.000063764505
 Ene=   0.14763768575688E+01
 Spin= Alpha
 Occup=    0.000000
   1      0.000000012030
   2      0.000002673382
   3      0.000000727822
   4      0.000932103089
   5     -0.000055997852
   6      0.001018858671
   7      0.006864639243
   8     -0.000412254637
   9      0.007771576699
  10     -0.065966054105
  11      0.000048727481
  12     -0.008089922744
  13     -0.037913770847
  14     -0.003666906664
  15      0.000002164841
  16     -0.000018954567
  17      0.000053878006
  18      0.000489331792
  19     -0.000024951618
  20      0.000523282594
  21     -0.001624843545
  22      0.000074254659
  23     -0.001977465238
  24     -0.007117839080
  25      0.000256732742
  26     -0.000863169906
  27     -0.004102744074
  28     -0.000299396196
  29     -0.000482668510
  30      0.003728794392
  31     -0.010752934129
  32      0.003932141297
  33      0.000433227324
  34     -0.003372088661
  35      0.014331780595
  36     -0.002137990279
  37     -0.009904428216
  38      0.014139671946
  39     -0.008998424783
  40      0.001549553904
  41      0.007497683679
  42      0.008383061174
  43      0.000480646337
  44     -0.003711317946
  45      0.010695949453
  46     -0.003778372511
  47     -0.000448661147
  48      0.003532129931
  49     -0.011236786580
  50      0.001991312703
  51      0.013281356473
  52      0.014364892320
  53      0.008430715454
  54      0.001921297617
  55      0.008925167832
  56     -0.007225148365
 Ene=   0.14858805362551E+01
 Spin= Alpha
 Occup=    0.000000
   1      0.000058821520
   2      0.000328620231
   3     -0.000977380877
   4      0.339774111463
   5     -0.019201387892
   6      0.377303895318
   7      2.643260014897
   8     -0.145356567573
   9      2.935270524188
  10      0.008968494581
  11     -0.241944130122
  12     -0.010524155803
  13      0.030035711152
  14     -0.267854147144
  15      0.000499640989
  16     -0.004076588295
  17      0.008733239428
  18      0.177826507456
  19     -0.009458157734
  20      0.197501549550
  21     -0.649971063298
  22      0.031197310155
  23     -0.721841965608
  24      0.001824921653
  25      0.030879291554
  26      0.001298367598
  27     -0.002646914650
  28      0.034363349619
  29     -0.182697027266
  30      1.410142072472
  31     -4.070649158204
  32      0.025446007704
  33      0.149600531824
  34      0.034882951852
  35      0.569636486797
  36     -0.981914682529
  37      0.604834847947
  38      0.009237356826
  39     -0.038148382790
  40      0.046271183319
  41     -0.028883134765
  42     -0.045793966544
  43      0.182405667606
  44     -1.408176844069
  45      4.063697862640
  46      0.024777404601
  47     -0.153461828080
  48      0.020837068469
  49      0.585769509762
  50      0.923805435030
  51      0.678376504059
  52     -0.015116489742
  53     -0.036540730408
  54     -0.050617189876
  55      0.033228335973
  56     -0.037355172873
 Ene=   0.14863986625025E+01
 Spin= Alpha
 Occup=    0.000000
   1      0.000001585853
   2      0.000007720253
   3     -0.000015010910
   4      0.007246382899
   5     -0.000413078391
   6      0.008057902666
   7      0.056626405128
   8     -0.003150921783
   9      0.062831525156
  10      0.000190019776
  11     -0.004852441968
  12     -0.000211172058
  13      0.000652804560
  14     -0.005996403961
  15      0.000012358352
  16     -0.000100830319
  17      0.000229184965
  18      0.003775841376
  19     -0.000201289450
  20      0.004246573204
  21     -0.013995231276
  22      0.000650954350
  23     -0.015363274221
  24      0.000037851791
  25      0.000586148913
  26      0.000024574038
  27     -0.000064157323
  28      0.000819514071
  29     -0.003913218699
  30      0.030199155067
  31     -0.087169018973
  32      0.000547127729
  33      0.003275202303
  34      0.000724760296
  35      0.012224534213
  36     -0.021081575135
  37      0.012927415183
  38      0.000235241615
  39     -0.000828111587
  40      0.001000959440
  41     -0.000568722188
  42     -0.000989035635
  43      0.003904706413
  44     -0.030138635804
  45      0.086968354880
  46      0.000539648834
  47     -0.003363349631
  48      0.000426222709
  49      0.012545791553
  50      0.019851585623
  51      0.014488219298
  52     -0.000358761759
  53     -0.000789607851
  54     -0.001091723648
  55      0.000666658347
  56     -0.000816742261
 Ene=   0.14957286187796E+01
 Spin= Alpha
 Occup=    0.000000
   1      0.000014602768
   2     -0.000060273667
   3     -0.000062727286
   4      0.000025822518
   5      0.000056065708
   6      0.000030670970
   7      0.000215561638
   8      0.000745233614
   9      0.000266522092
  10     -0.000282142878
  11     -0.000014707093
  12     -0.000083305354
  13     -0.000099435522
  14     -0.000029782180
  15     -0.000040377108
  16      0.000300319044
  17     -0.000841329334
  18      0.000016720663
  19     -0.000099209766
  20      0.000015387378
  21     -0.000051201363
  22      0.000303771064
  23     -0.000048522269
  24     -0.000061513056
  25      0.000002893602
  26      0.000011782995
  27      0.000001550931
  28      0.000001990799
  29      0.000011797495
  30     -0.000093598293
  31      0.000199836341
  32      0.000039535313
  33      0.000111351209
  34      0.000018769822
  35     -0.000075704692
  36     -0.000209322707
  37     -0.000194283615
  38      0.000062765932
  39     -0.000044109147
  40     -0.000005999477
  41      0.000025601584
  42      0.000035908005
  43      0.000040161786
  44     -0.000313533355
  45      0.000842137031
  46     -0.000040249080
  47      0.000086716075
  48     -0.000009362791
  49      0.000170607628
  50     -0.000079914677
  51      0.000285642832
  52      0.000062012370
  53      0.000038313268
  54     -0.000013053678
  55      0.000036969308
  56     -0.000035940014
 Ene=   0.15009826170268E+01
 Spin= Alpha
 Occup=    0.000000
   1      0.000021232879
   2     -0.000123455497
   3     -0.000186230006
   4     -0.002471623140
   5      0.000172144752
   6      0.002236112470
   7      0.011423500186
   8      0.002596808843
   9     -0.010138071605
  10      0.000796471861
  11      0.136229661397
  12      0.004415407860
  13      0.008570212550
  14     -0.122306734992
  15     -0.000126493268
  16      0.000956628091
  17     -0.002646795848
  18     -0.011205813399
  19     -0.000468653029
  20      0.010070188593
  21     -0.039505199785
  22     -0.000285588387
  23      0.035553855543
  24     -0.000688595277
  25     -0.038944100990
  26     -0.001312925724
  27     -0.002579089199
  28      0.034960845485
  29      0.000077374577
  30     -0.000605996836
  31      0.001544701276
  32      0.006330418574
  33      0.000377024691
  34     -0.005542802471
  35      0.009412092648
  36     -0.000047352955
  37     -0.009529872563
  38      0.024933579761
  39      0.003778403609
  40      0.003106818499
  41      0.014602759688