[Molden Format]
[Title]
generated by TRESC, imaginary part1 of MOs of job CO3
 
[Atoms] AU
 C   1   6    0.3364484192    5.8882927452    0.3891081484
 O   2   8    2.6974300312    5.9862747024    0.4085979628
 O   3   8   -0.7714112401    7.4618585764    1.8371371576
 O   4   8   -0.6184572465    4.2284969646   -1.0743142370
[GTO]
  1 0
 s  5 1.0
     1238.4016938000        0.0059599745
      186.2900499200        0.0422621111
       42.2511763500        0.1866575214
       11.6765579300        0.4675815865
        3.5930506500        0.4422897287
 s  1 1.0
        0.4024514700        1.0000000000
 s  1 1.0
        0.1309018300        1.0000000000
 p  3 1.0
        9.4680970600        0.0570294585
        2.0103545100        0.3130471495
        0.5477100500        0.7605135301
 p  1 1.0
        0.1526861400        1.0000000000
 d  1 1.0
        0.8000000000        1.0000000000
 
  2 0
 s  5 1.0
     2266.1767785000        0.0060711540
      340.8701019100        0.0417308970
       77.3631351700        0.1850777598
       21.4796449400        0.4668774046
        6.6589433100        0.4435718061
 s  1 1.0
        0.8097597600        1.0000000000
 s  1 1.0
        0.2553077200        1.0000000000
 p  3 1.0
       17.7215043200        0.0628680198
        3.8635505400        0.3334973703
        1.0480920900        0.7412421661
 p  1 1.0
        0.2764154400        1.0000000000
 d  1 1.0
        1.2000000000        1.0000000000
 
  3 0
 s  5 1.0
     2266.1767785000        0.0060711540
      340.8701019100        0.0417308970
       77.3631351700        0.1850777598
       21.4796449400        0.4668774046
        6.6589433100        0.4435718061
 s  1 1.0
        0.8097597600        1.0000000000
 s  1 1.0
        0.2553077200        1.0000000000
 p  3 1.0
       17.7215043200        0.0628680198
        3.8635505400        0.3334973703
        1.0480920900        0.7412421661
 p  1 1.0
        0.2764154400        1.0000000000
 d  1 1.0
        1.2000000000        1.0000000000
 
  4 0
 s  5 1.0
     2266.1767785000        0.0060711540
      340.8701019100        0.0417308970
       77.3631351700        0.1850777598
       21.4796449400        0.4668774046
        6.6589433100        0.4435718061
 s  1 1.0
        0.8097597600        1.0000000000
 s  1 1.0
        0.2553077200        1.0000000000
 p  3 1.0
       17.7215043200        0.0628680198
        3.8635505400        0.3334973703
        1.0480920900        0.7412421661
 p  1 1.0
        0.2764154400        1.0000000000
 d  1 1.0
        1.2000000000        1.0000000000
 
[5D]
[7F]
[9G]
[MO]
 Ene=  -0.19334310470445E+02
 Spin= Alpha
 Occup=    1.000000
   1     -0.000242473363
   2     -0.000837418352
   3     -0.009019425447
   4      0.000174123594
   5      0.000073314913
   6      0.000195965207
   7      0.011784042791
   8      0.005471981449
   9      0.013290515159
  10      0.000304429807
  11      0.001038890453
  12      0.001094902719
  13     -0.000829297996
  14      0.001142566996
  15      0.014297945316
  16      0.001779924288
  17     -0.002972699320
  18      0.000196078736
  19     -0.000462988497
  20      0.000203458237
  21     -0.002406423192
  22      0.001166452534
  23     -0.002640716392
  24     -0.000014181074
  25      0.000290433020
  26     -0.000207505578
  27      0.000050611010
  28      0.000319284817
  29      0.102599874810
  30      0.006003359294
  31     -0.009153354235
  32     -0.000210981534
  33      0.000515413241
  34     -0.000217082820
  35      0.000224858169
  36     -0.004011065147
  37      0.000115085969
  38      0.000242819811
  39      0.000229884178
  40      0.000231766279
  41     -0.000484862406
  42      0.000232074739
  43     -0.968262306301
  44     -0.045446679556
  45      0.037219881313
  46     -0.001826439265
  47     -0.001251917564
  48     -0.002073840100
  49      0.005194879889
  50      0.003911678095
  51      0.005910086235
  52     -0.000069309448
  53     -0.000058540228
  54     -0.000022519956
  55      0.000129364662
  56     -0.000057760169
 Ene=  -0.19333481992022E+02
 Spin= Alpha
 Occup=    1.000000
   1     -0.000290408956
   2     -0.000993466070
   3     -0.010746588851
   4     -0.000129101389
   5      0.000101173909
   6     -0.000140391718
   7     -0.009092634835
   8      0.007778167881
   9     -0.009854014582
  10      0.000339631359
  11     -0.000914734279
  12      0.001208364816
  13     -0.000784958935
  14     -0.001025653198
  15      0.020011392902
  16      0.002264759137
  17     -0.003633345968
  18     -0.000160729814
  19     -0.000542979646
  20     -0.000195937987
  21      0.001889578416
  22      0.001163302924
  23      0.002137111295
  24     -0.000025182175
  25     -0.000203837415
  26     -0.000278000439
  27      0.000115638846
  28     -0.000229325193
  29     -0.934412154294
  30     -0.043612899729
  31      0.034835025153
  32      0.001743745481
  33     -0.001320182196
  34      0.001895174761
  35     -0.005020184462
  36      0.003559535460
  37     -0.005464330339
  38     -0.000014655889
  39      0.000113154102
  40      0.000027113723
  41      0.000013963168
  42      0.000127533190
  43     -0.098887240587
  44     -0.003473205559
  45     -0.001321309057
  46     -0.000163598746
  47      0.000228059620
  48     -0.000174076234
  49      0.000797511309
  50     -0.003125189627
  51      0.000781876173
  52      0.000219479082
  53     -0.000269558279
  54      0.000199440483
  55     -0.000404021174
  56     -0.000319980565
 Ene=  -0.19328598003944E+02
 Spin= Alpha
 Occup=    0.999999
   1      0.000341894048
   2      0.000578010196
   3      0.012230711267
   4     -0.000002147230
   5     -0.000210517590
   6     -0.000009013005
   7      0.000141187475
   8      0.013413534585
   9      0.000590131697
  10      0.000964655615
  11     -0.000047316393
  12      0.000506171711
  13     -0.001772500164
  14     -0.000149488919
  15      0.987425698199
  16      0.045670338553
  17     -0.034688678233
  18     -0.000024767158
  19     -0.003055720742
  20     -0.000126002563
  21      0.000059200347
  22      0.007864496126
  23      0.000319836116
  24     -0.000131986490
  25     -0.000007375948
  26      0.000251926194
  27      0.000172734118
  28      0.000011983372
  29      0.019753128588
  30     -0.000266061980
  31      0.001274163323
  32      0.000333050279
  33      0.000003796874
  34      0.000370089790
  35     -0.001243486009
  36     -0.001804496139
  37     -0.001439953233
  38     -0.000028612392
  39      0.000214617765
  40      0.000245028992
  41     -0.000016596456
  42      0.000246390650
  43      0.016980089552
  44     -0.000394069783
  45      0.001395864646
  46     -0.000336551016
  47      0.000035452529
  48     -0.000373663441
  49      0.001226502529
  50     -0.001920887203
  51      0.001303596656
  52     -0.000033307666
  53     -0.000233294246
  54      0.000222476567
  55      0.000024852234
  56     -0.000250331881
 Ene=  -0.19312962051608E+02
 Spin= Alpha
 Occup=    0.000000
   1     -0.000000149633
   2     -0.000000533468
   3     -0.000005434479
   4      0.000000106153
   5      0.000000066112
   6      0.000000159562
   7      0.000007474530
   8      0.000002547066
   9      0.000008263925
  10      0.000000072188
  11      0.000000615404
  12      0.000000556781
  13     -0.000000446454
  14      0.000000732103
  15     -0.000025556347
  16     -0.000000555673
  17     -0.000000478859
  18      0.000000136881
  19     -0.000000155707
  20      0.000000121521
  21     -0.000001536475
  22      0.000000390609
  23     -0.000001657009
  24      0.000000022115
  25      0.000000183325
  26     -0.000000126137
  27      0.000000041388
  28      0.000000197522
  29      0.000096062752
  30      0.000005214664
  31     -0.000006802131
  32     -0.000000180764
  33      0.000000357365
  34     -0.000000222762
  35      0.000000325150
  36     -0.000002472232
  37      0.000000341414
  38      0.000000156041
  39      0.000000128628
  40      0.000000065548
  41     -0.000000320236
  42      0.000000119356
  43     -0.000576969578
  44     -0.000027093741
  45      0.000022313445
  46     -0.000000897118
  47     -0.000000752023
  48     -0.000001359240
  49      0.000002956584
  50      0.000002535360
  51      0.000003587273
  52     -0.000000006965
  53     -0.000000042123
  54      0.000000340061
  55      0.000000297346
  56      0.000000016266
 Ene=  -0.19312256993248E+02
 Spin= Alpha
 Occup=    0.000000
   1      0.000000187834
   2      0.000000655727
   3      0.000006772615
   4      0.000000080130
   5     -0.000000092312
   6      0.000000115856
   7      0.000005854896
   8     -0.000003843493
   9      0.000006276657
  10     -0.000000070005
  11      0.000000538367
  12     -0.000000625536
  13      0.000000409169
  14      0.000000645877
  15      0.000036889152
  16      0.000000928986
  17      0.000000391838
  18      0.000000111807
  19      0.000000164552
  20      0.000000107535
  21     -0.000001215458
  22     -0.000000275686
  23     -0.000001327744
  24     -0.000000022143
  25      0.000000129633
  26      0.000000179380
  27     -0.000000088269
  28      0.000000143224
  29      0.000562408910
  30      0.000026244797
  31     -0.000021045568
  32     -0.000000861533
  33      0.000000796353
  34     -0.000001257681
  35      0.000002871104
  36     -0.000002347725
  37      0.000003313721
  38     -0.000000034086
  39     -0.000000080847
  40     -0.000000358893
  41     -0.000000227148
  42     -0.000000039831
  43      0.000030510982
  44      0.000000716430
  45      0.000001944566
  46      0.000000009342
  47     -0.000000173221
  48      0.000000044603
  49     -0.000000281427
  50      0.000001886940
  51     -0.000000231979
  52     -0.000000154164
  53      0.000000157266
  54     -0.000000124111
  55      0.000000232487
  56      0.000000167001
 Ene=  -0.19308236110753E+02
 Spin= Alpha
 Occup=    0.000001
   1      0.000000308099
   2      0.000000529276
   3      0.000010335095
   4     -0.000000000173
   5     -0.000000137113
   6     -0.000000006952
   7      0.000000052768
   8      0.000012310527
   9      0.000000460397
  10      0.000000817595
  11     -0.000000054232
  12      0.000000508877
  13     -0.000001605069
  14     -0.000000141761
  15      0.000878226477
  16      0.000040706899
  17     -0.000030996604
  18     -0.000000032026
  19     -0.000002721855
  20     -0.000000111291
  21      0.000000073339
  22      0.000007083441
  23      0.000000303095
  24     -0.000000151089
  25     -0.000000014414
  26      0.000000590322
  27     -0.000000152290
  28     -0.000000006986
  29     -0.000011853053
  30     -0.000001574693
  31      0.000002112194
  32      0.000000330264
  33     -0.000000029876
  34      0.000000399594
  35     -0.000001261211
  36     -0.000001570013
  37     -0.000001461034
  38      0.000000003828
  39      0.000000187869
  40      0.000000228382
  41     -0.000000001466
  42      0.000000205226
  43     -0.000007481597
  44     -0.000001364814
  45      0.000001931959
  46     -0.000000321637
  47      0.000000013994
  48     -0.000000390330
  49      0.000001214604
  50     -0.000001738172
  51      0.000001302581
  52      0.000000000127
  53     -0.000000203804
  54      0.000000209664
  55      0.000000030513
  56     -0.000000210646
 Ene=  -0.10448691277107E+02
 Spin= Alpha
 Occup=    0.000000
   1      0.000184016001
   2      0.000009842040
   3      0.000000301115
   4      0.000000001027
   5      0.000000076616
   6      0.000000002432
   7      0.000000002150
   8      0.000000096764
   9      0.000000005493
  10     -0.000000367208
  11     -0.000000028180
  12      0.000000814470
  13      0.000000136038
  14      0.000000009116
  15      0.000000031170
  16      0.000000049050
  17     -0.000001796518
  18      0.000000004448
  19      0.000000238329
  20      0.000000011738
  21      0.000000009070
  22      0.000001388333
  23      0.000000056369
  24      0.000000192690
  25      0.000000004815
  26     -0.000000000754
  27     -0.000000225865
  28     -0.000000020421
  29     -0.000000012148
  30      0.000000142435
  31     -0.000001849377
  32      0.000000184099
  33     -0.000000124020
  34      0.000000103729
  35      0.000000881665
  36     -0.000000657516
  37      0.000001008651
  38      0.000000137008
  39      0.000000134512
  40     -0.000000222058
  41      0.000000150805
  42      0.000000236247
  43     -0.000000010499
  44      0.000000142693
  45     -0.000001846894
  46     -0.000000188968
  47     -0.000000110068
  48     -0.000000113010
  49     -0.000000887836
  50     -0.000000563586
  51     -0.000001059076
  52      0.000000140081
  53     -0.000000116560
  54     -0.000000233115
  55      0.000000187107
  56     -0.000000214602
 Ene=  -0.10444246848125E+02
 Spin= Alpha
 Occup=    1.000000
   1      0.965874109203
   2      0.051570007567
   3      0.001559559550
   4      0.000007264344
   5      0.000485959461
   6      0.000020428393
   7      0.000009067834
   8      0.000529251901
   9      0.000019927116
  10     -0.001098929183
  11     -0.000136764632
  12      0.003955419526
  13      0.001062315439
  14      0.000060980154
  15     -0.000023654127
  16      0.000397145560
  17     -0.009534396004
  18      0.000009481951
  19      0.001205381624
  20      0.000049228732
  21      0.000062155155
  22      0.007328906819
  23      0.000307423953
  24      0.000738073435
  25     -0.000021892907
  26      0.000017310670
  27     -0.001278041058
  28     -0.000106388921
  29      0.000010062671
  30      0.000709942650
  31     -0.009608768209
  32      0.000714366853
  33     -0.000644249750
  34      0.000772740272
  35      0.004717626101
  36     -0.003422744075
  37      0.005134407407
  38     -0.000063570896
  39      0.000928797155
  40     -0.001265768918
  41      0.000318197200
  42      0.001008270855
  43      0.000010806464
  44      0.000719995339
  45     -0.009608576931
  46     -0.000721399718
  47     -0.000566512730
  48     -0.000821693414
  49     -0.004764842222
  50     -0.002927063400
  51     -0.005396594350
  52     -0.000085005751
  53     -0.000816708005
  54     -0.001357600272
  55      0.000492739856
  56     -0.000927218079
 Ene=  -0.12357292869971E+01
 Spin= Alpha
 Occup=    1.000000
   1     -0.060880516956
   2      0.118595744652
   3      0.003913741518
   4      0.000148619994
   5      0.013663113278
   6      0.000591826204
   7      0.000024132742
   8      0.001410821444
   9      0.000069048390
  10     -0.002353663792
  11     -0.000231827515
  12      0.007165082737
  13      0.002549599191
  14      0.000168850139
  15     -0.053899470591
  16      0.107979669635
  17      0.054541506756
  18     -0.000305876752
  19     -0.038485621689
  20     -0.001707055111
  21     -0.000078159559
  22     -0.009357114225
  23     -0.000387474292
  24     -0.001691565802
  25     -0.000034986083
  26      0.001783549549
  27      0.002542152115
  28      0.000192923526
  29     -0.043390626534
  30      0.086814004690
  31      0.046192901536
  32     -0.017989282992
  33      0.016198740390
  34     -0.019421005753
  35     -0.004992741346
  36      0.004395435693
  37     -0.005406676025
  38      0.000439031708
  39     -0.001565085524
  40      0.000974777868
  41     -0.000867473043
  42     -0.001759491032
  43     -0.043456716594
  44      0.086961019939
  45      0.046367190264
  46      0.018200311827
  47      0.014135287373
  48      0.020761361045
  49      0.005077400244
  50      0.003889574146
  51      0.005776962585
  52      0.000493515514
  53      0.001450362030
  54      0.001102358309
  55     -0.001182195259
  56      0.001579984720
 Ene=  -0.11999142658920E+01
 Spin= Alpha
 Occup=    0.000000
   1      0.000000675589
   2     -0.000001315008
   3     -0.000000060216
   4      0.000000465856
   5      0.000001039846
   6     -0.000000045368
   7     -0.000000166757
   8      0.000000258435
   9      0.000000138954
  10     -0.000001124131
  11     -0.000000025183
  12     -0.000000319566
  13     -0.000000494564
  14     -0.000000028710
  15     -0.000000654614
  16      0.000001779043
  17      0.000000074584
  18     -0.000004735033
  19     -0.000000190161
  20      0.000000733508
  21      0.000000047186
  22      0.000000178922
  23     -0.000000000038
  24     -0.000000045189
  25      0.000000134342
  26     -0.000000079561
  27     -0.000000028959
  28     -0.000000031382
  29      0.000001245310
  30     -0.000002733920
  31     -0.000001119199
  32     -0.000061015417
  33     -0.000000303856
  34      0.000056613458
  35     -0.000001311574
  36     -0.000000182697
  37      0.000001193888
  38      0.000001810541
  39     -0.000000818812
  40      0.000000140357
  41      0.000001046994
  42      0.000000820403
  43      0.000001326618
  44     -0.000002959833
  45     -0.000001020992
  46      0.000064614721
  47     -0.000000172465
  48     -0.000057365712
  49      0.000001513843
  50      0.000000044446
  51     -0.000001267432
  52      0.000001929467
  53      0.000000779232
  54      0.000000272866
  55      0.000001127554
  56     -0.000000702300
 Ene=  -0.11171645863023E+01
 Spin= Alpha
 Occup=    1.000000
   1     -0.000009856827
   2      0.000010769128
   3      0.000006965964
   4     -0.108056580087
   5      0.003640768397
   6     -0.120071204380
   7     -0.006627087189
   8      0.000309388907
   9     -0.007361215294
  10      0.000223992516
  11      0.009652635835
  12      0.000607605195
  13     -0.001171768286
  14      0.010693071188
  15      0.001834935577
  16     -0.003715387530
  17     -0.002143506095
  18     -0.015560172290
  19      0.001785082393
  20     -0.017252627474
  21     -0.004976721688
  22      0.000537718910
  23     -0.005519000955
  24      0.000050899358
  25      0.001849896427
  26      0.000031364006
  27     -0.000214170015
  28      0.002047157490
  29      0.120412062813
  30     -0.245350960873
  31     -0.138576191775
  32      0.035324388696
  33     -0.037007991585
  34      0.038118907804
  35      0.009978882893
  36     -0.010943188530
  37      0.010735101602
  38     -0.000803202859
  39      0.002950368192
  40      0.000211653007
  41      0.001162699462
  42      0.003357281026
  43     -0.122641424753
  44      0.249966247717
  45      0.141384262706
  46      0.036517080961
  47      0.033367401808
  48      0.041668575627
  49      0.010379212187
  50      0.009885393251
  51      0.011872828024
  52      0.000964289710
  53      0.002920228102
  54      0.000033249906
  55     -0.001854906082
  56      0.003137029602
 Ene=  -0.10968704298646E+01
 Spin= Alpha
 Occup=    1.000000
   1     -0.000081739556
   2      0.000165263594
   3      0.000026029727
   4      0.000073845997
   5     -0.001274246271
   6     -0.000060134496
   7      0.000000761551
   8     -0.000062047480
   9      0.000021525996
  10      0.000062836537
  11     -0.000007928046
  12      0.000088176641
  13     -0.000126930869
  14     -0.000014120898
  15      0.001099981140
  16     -0.002238342365
  17     -0.001303340020
  18      0.000021438868
  19      0.000530072469
  20      0.000176380224
  21      0.000006983193
  22      0.000152644570
  23      0.000016040012
  24      0.000013550473
  25      0.000000454949
  26     -0.000036062701
  27     -0.000015426181
  28     -0.000005215842
  29     -0.000749346855
  30      0.001531238380
  31      0.000898247456
  32     -0.000252715940
  33      0.000128396472
  34     -0.000271777914
  35     -0.000083241300
  36      0.000020582783
  37     -0.000095251815
  38      0.000012905385
  39     -0.000009935105
  40      0.000008347980
  41     -0.000023535501
  42     -0.000012794291
  43     -0.000578899423
  44      0.001186961963
  45      0.000679476989
  46      0.000210345540
  47     -0.000072630650
  48      0.000232446548
  49      0.000057590459
  50     -0.000018179410
  51      0.000059817924
  52      0.000012060001
  53     -0.000000326401
  54      0.000003373376
  55     -0.000021255208
  56     -0.000002204188
 Ene=  -0.10643539558249E+01
 Spin= Alpha
 Occup=    0.000000
   1     -0.000000126094
   2      0.000000317001
   3      0.000000176631
   4     -0.000059426106
   5     -0.000001739547
   6      0.000047758702
   7      0.000020623046
   8     -0.000000033502
   9     -0.000018979973
  10     -0.000000090344
  11     -0.000001405079
  12     -0.000000024747
  13     -0.000000166845
  14      0.000001733792
  15      0.000001673426
  16     -0.000003342302
  17     -0.000002363891
  18     -0.000031402708
  19      0.000000534867
  20      0.000027554898
  21     -0.000007050108
  22      0.000000534381
  23      0.000006173999
  24      0.000000141469
  25      0.000000825209
  26     -0.000000014967
  27     -0.000000123481
  28     -0.000000662347
  29      0.000001878258
  30     -0.000003429876
  31     -0.000002776703
  32      0.000073921739
  33     -0.000000943716
  34     -0.000066794151
  35      0.000000034075
  36     -0.000000311175
  37      0.000000428248
  38     -0.000002099825
  39      0.000001143424
  40      0.000000008519
  41     -0.000001123256
  42     -0.000000937025
  43     -0.000003916265
  44      0.000007565561
  45      0.000005361151
  46      0.000080961674
  47      0.000000854479
  48     -0.000068024689
  49      0.000000869295
  50      0.000000381848
  51      0.000000592448
  52      0.000002346285
  53      0.000001172889
  54      0.000000255993
  55      0.000001132546
  56     -0.000000761725
 Ene=  -0.10456283450565E+01
 Spin= Alpha
 Occup=    0.000000
   1     -0.000000680380
   2      0.000001131054
   3     -0.000000381997
   4     -0.000002423210
   5      0.000002101308
   6      0.000000943716
   7      0.000000893547
   8      0.000000197031
   9     -0.000000111980
  10     -0.000001896609
  11      0.000000170338
  12     -0.000000254321
  13     -0.000000811602
  14     -0.000000005928
  15     -0.000001911798
  16      0.000003251152
  17      0.000003194892
  18      0.000006025028
  19     -0.000001313514
  20     -0.000000953450
  21      0.000000232125
  22     -0.000000655609
  23      0.000000091714
  24      0.000000126467
  25     -0.000000186350
  26      0.000000228762
  27      0.000000096995
  28      0.000000027465
  29      0.000000263525
  30     -0.000000893796
  31      0.000000346924
  32     -0.000065767610
  33      0.000000396191
  34      0.000059019707
  35     -0.000005861714
  36      0.000000302501
  37      0.000004540121
  38      0.000002025593
  39     -0.000000703550
  40      0.000000292982
  41      0.000001142710
  42      0.000000391392
  43      0.000001421445
  44     -0.000003151280
  45     -0.000001538582
  46      0.000064425504
  47      0.000000069287
  48     -0.000057949700
  49      0.000004993105
  50     -0.000000029463
  51     -0.000004797749
  52      0.000002003406
  53      0.000000414410
  54      0.000000165726
  55      0.000001224236
  56     -0.000000411777
 Ene=  -0.62427515205324E+00
 Spin= Alpha
 Occup=    0.999999
   1     -0.135900717078
   2      0.332609104199
   3      0.028524745209
   4     -0.001000367657
   5      0.008824868074
   6     -0.000946195940
   7     -0.000209384859
   8     -0.004507417811
   9     -0.000380526697
  10     -0.001305103969
  11     -0.000245729055
  12      0.006846274737
  13      0.000806832922
  14      0.000000558763
  15      0.083604705527
  16     -0.176291097517
  17     -0.178845120604
  18     -0.002483780294
  19     -0.216264649213
  20     -0.010347953808
  21     -0.001252702822
  22     -0.105597728341
  23     -0.005032905731
  24     -0.005965272328
  25      0.000401658214
  26     -0.004028702832
  27      0.011148431211
  28      0.001043015135
  29      0.078535581163
  30     -0.165517133050
  31     -0.168130217796
  32     -0.120752310117
  33      0.093850169919
  34     -0.131001654823
  35     -0.059798969414
  36      0.045392004989
  37     -0.064953501912
  38     -0.000071254059
  39     -0.004803693023
  40      0.008918757799
  41     -0.001447641229
  42     -0.005122509191
  43      0.079256705178
  44     -0.167051836240
  45     -0.169846739063
  46      0.123594165199
  47      0.082311360796
  48      0.140380488356
  49      0.061211064893
  50      0.039899495615
  51      0.069450898432
  52     -0.000018262054
  53      0.004092783550
  54      0.009495084668
  55     -0.002288404186
  56      0.004753158343
 Ene=  -0.59607366300479E+00
 Spin= Alpha
 Occup=    0.000007
   1     -0.000003112972
   2      0.000007720183
   3      0.000000599311
   4     -0.000009909395
   5      0.000004996174
   6      0.000026672058
   7     -0.000006715249
   8      0.000000546186
   9      0.000008320297
  10      0.000061629356
  11      0.000001071320
  12      0.000007833004
  13      0.000035470961
  14      0.000002172989
  15      0.000003916887
  16     -0.000007822898
  17     -0.000009516607
  18      0.000029202501
  19     -0.000013429920
  20      0.000015033557
  21      0.000011104873
  22     -0.000006403522
  23      0.000009205200
  24      0.000001498358
  25     -0.000000568771
  26      0.000000011528
  27      0.000001734554
  28     -0.000000969135
  29      0.000004458433
  30     -0.000009734195
  31     -0.000009750489
  32      0.000626498734
  33      0.000018446720
  34     -0.000580795135
  35      0.000272677956
  36      0.000010745486
  37     -0.000252494739
  38     -0.000019460091
  39      0.000009048713
  40     -0.000001585021
  41     -0.000010637282
  42     -0.000009291666
  43     -0.000003001587
  44      0.000006128504
  45      0.000007226386
  46     -0.000707753803
  47     -0.000011850229
  48      0.000616209329
  49     -0.000312133366
  50     -0.000006996160
  51      0.000271909586
  52     -0.000022841158
  53     -0.000010028662
  54     -0.000003735227
  55     -0.000013460909
  56      0.000008170649
 Ene=  -0.58871915718396E+00
 Spin= Alpha
 Occup=    0.999982
   1      0.000431687516
   2     -0.001145322371
   3      0.000427463443
   4     -0.182575297896
   5      0.004352886322
   6     -0.203707942802
   7     -0.023338935120
   8      0.000422869190
   9     -0.026263943429
  10     -0.000109648087
  11     -0.009309715140
  12     -0.000513758889
  13      0.000958388857
  14     -0.010325122689
  15     -0.001908480041
  16      0.003967120446
  17      0.004666207760
  18     -0.174359463652
  19      0.016491518154
  20     -0.193945662387
  21     -0.101759632173
  22      0.008921141080
  23     -0.113194465864
  24      0.000296758533
  25      0.009134539936
  26      0.000537052560
  27     -0.001219665617
  28      0.010148808423
  29     -0.072482094935
  30      0.151448780427
  31      0.173115875998
  32      0.116095441600
  33     -0.198054921238
  34      0.121222448105
  35      0.054611721641
  36     -0.108339831773
  37      0.056483161793
  38      0.002227187397
  39      0.007368804374
  40     -0.007829350618
  41     -0.002751566619
  42      0.007711098968
  43      0.073135826941
  44     -0.152760622114
  45     -0.175107721727
  46      0.122266351393
  47      0.181332356445
  48      0.141933192847
  49      0.057932967945
  50      0.100047548672
  51      0.067639128784
  52     -0.002001582650
  53      0.006672240351
  54      0.008839432207
  55      0.001139708208
  56      0.007818917772
 Ene=  -0.58431734510322E+00
 Spin= Alpha
 Occup=    0.999990
   1      0.000070190830
   2     -0.000165904396
   3     -0.000025045537
   4      0.266352669336
   5      0.007265263909
   6     -0.238688995329
   7      0.110344872025
   8      0.003151496249
   9     -0.099113480896
  10     -0.000086393056
  11      0.001114013375
  12      0.000000814047
  13      0.000002062514
  14     -0.000967342047
  15     -0.000175759893
  16      0.000368620047
  17      0.000415076780
  18      0.182922962673
  19      0.005939918400
  20     -0.163703635145
  21      0.099729009208
  22      0.003199947493
  23     -0.089221040441
  24     -0.000170856631
  25     -0.012719369974
  26     -0.000427646033
  27     -0.000870714417
  28      0.011375638093
  29      0.000207190037
  30     -0.000424584831
  31     -0.000532741439
  32      0.238464573441
  33      0.007334909799
  34     -0.215484107489
  35      0.132232160891
  36      0.004029520831
  37     -0.119427360982
  38     -0.015133803500
  39      0.006728770775
  40     -0.001590485339
  41     -0.008332113510
  42     -0.006591837471
  43     -0.000103532717
  44      0.000224087155
  45      0.000213927630
  46      0.241565898946
  47      0.006598952976
  48     -0.217173738054
  49      0.134119218852
  50      0.003631764683
  51     -0.120556028467
  52      0.015397134002
  53      0.006357169800
  54      0.002100774593
  55      0.009230010267
  56     -0.005215764587
 Ene=  -0.56990454176776E+00
 Spin= Alpha
 Occup=    0.999978
   1      0.000576027578
   2     -0.001303357610
   3     -0.001022211284
   4      0.002886882888
   5      0.016529665175
   6      0.003648325204
   7      0.000313113686
   8      0.003017454246
   9      0.000305141894
  10      0.000017909522
  11      0.000110179313
  12      0.000064431402
  13     -0.000041127297
  14      0.000036406428
  15      0.004484547642
  16     -0.009308978936
  17     -0.011665430112
  18      0.002426824865
  19     -0.017226959289
  20      0.000546155149
  21      0.001479637143
  22     -0.008595372565
  23      0.000687050198
  24     -0.000395647284
  25     -0.000121973237
  26     -0.000151250056
  27      0.000720025509
  28     -0.000040695874
  29     -0.001304845999
  30      0.002635540834
  31      0.003720317302
  32      0.006013378495
  33      0.006498661487
  34      0.007191970813
  35      0.003224641868
  36      0.004191899701
  37      0.003838073105
  38     -0.000187150726
  39     -0.000131040431
  40     -0.000468064270
  41      0.000436376834