[Molden Format]
[Title]
generated by TRESC, imaginary part2 of MOs of job CO3
 
[Atoms] AU
 C   1   6    0.3364484192    5.8882927452    0.3891081484
 O   2   8    2.6974300312    5.9862747024    0.4085979628
 O   3   8   -0.7714112401    7.4618585764    1.8371371576
 O   4   8   -0.6184572465    4.2284969646   -1.0743142370
[GTO]
  1 0
 s  5 1.0
     1238.4016938000        0.0059599745
      186.2900499200        0.0422621111
       42.2511763500        0.1866575214
       11.6765579300        0.4675815865
        3.5930506500        0.4422897287
 s  1 1.0
        0.4024514700        1.0000000000
 s  1 1.0
        0.1309018300        1.0000000000
 p  3 1.0
        9.4680970600        0.0570294585
        2.0103545100        0.3130471495
        0.5477100500        0.7605135301
 p  1 1.0
        0.1526861400        1.0000000000
 d  1 1.0
        0.8000000000        1.0000000000
 
  2 0
 s  5 1.0
     2266.1767785000        0.0060711540
      340.8701019100        0.0417308970
       77.3631351700        0.1850777598
       21.4796449400        0.4668774046
        6.6589433100        0.4435718061
 s  1 1.0
        0.8097597600        1.0000000000
 s  1 1.0
        0.2553077200        1.0000000000
 p  3 1.0
       17.7215043200        0.0628680198
        3.8635505400        0.3334973703
        1.0480920900        0.7412421661
 p  1 1.0
        0.2764154400        1.0000000000
 d  1 1.0
        1.2000000000        1.0000000000
 
  3 0
 s  5 1.0
     2266.1767785000        0.0060711540
      340.8701019100        0.0417308970
       77.3631351700        0.1850777598
       21.4796449400        0.4668774046
        6.6589433100        0.4435718061
 s  1 1.0
        0.8097597600        1.0000000000
 s  1 1.0
        0.2553077200        1.0000000000
 p  3 1.0
       17.7215043200        0.0628680198
        3.8635505400        0.3334973703
        1.0480920900        0.7412421661
 p  1 1.0
        0.2764154400        1.0000000000
 d  1 1.0
        1.2000000000        1.0000000000
 
  4 0
 s  5 1.0
     2266.1767785000        0.0060711540
      340.8701019100        0.0417308970
       77.3631351700        0.1850777598
       21.4796449400        0.4668774046
        6.6589433100        0.4435718061
 s  1 1.0
        0.8097597600        1.0000000000
 s  1 1.0
        0.2553077200        1.0000000000
 p  3 1.0
       17.7215043200        0.0628680198
        3.8635505400        0.3334973703
        1.0480920900        0.7412421661
 p  1 1.0
        0.2764154400        1.0000000000
 d  1 1.0
        1.2000000000        1.0000000000
 
[5D]
[7F]
[9G]
[MO]
 Ene=   0.95186854516411E+00
 Spin= Alpha
 Occup=    0.000000
   1     -0.000007709636
   2      0.000396166842
   3      0.000322719680
   4     -0.000493459053
   5     -0.000064750892
   6     -0.000551781261
   7      0.002529934648
   8      0.000145204954
   9      0.002826638281
  10      0.000008063232
  11      0.000608595532
  12      0.000217328275
  13     -0.000101990440
  14      0.000678972057
  15     -0.000014099063
  16      0.000081030290
  17     -0.000310127354
  18      0.000900935163
  19     -0.000066735235
  20      0.001012016188
  21     -0.002953108624
  22      0.000180574915
  23     -0.003295029724
  24     -0.000000798365
  25     -0.000298619373
  26     -0.000016108985
  27      0.000024349747
  28     -0.000331879294
  29     -0.000321465311
  30      0.001628494143
  31     -0.003063728655
  32      0.000569358066
  33     -0.002947154276
  34      0.000538584771
  35     -0.000882362837
  36      0.003310373630
  37     -0.000878436256
  38      0.000022364742
  39      0.000048449879
  40     -0.000083030795
  41     -0.000023647853
  42      0.000049397757
  43      0.000438951962
  44     -0.002131273848
  45      0.003212491664
  46      0.001081820075
  47      0.003229924197
  48      0.001305412993
  49     -0.001585384156
  50     -0.003985007331
  51     -0.001890953483
  52     -0.000032928486
  53      0.000061177032
  54      0.000086507892
  55      0.000034359555
  56      0.000073235005
 Ene=   0.95258530303504E+00
 Spin= Alpha
 Occup=    0.000000
   1      0.000001712815
   2      0.000131815578
   3     -0.000018885227
   4      0.000396750844
   5      0.000090340569
   6      0.000443805650
   7     -0.001090323452
   8     -0.000273268920
   9     -0.001234560285
  10     -0.000093720690
  11     -0.000601244355
  12     -0.000058975204
  13      0.000216299957
  14     -0.000663316183
  15      0.000084878843
  16     -0.000400099795
  17      0.000416486243
  18      0.001363685383
  19     -0.000569530912
  20      0.001349604080
  21     -0.001220569145
  22      0.000783850002
  23     -0.001150841394
  24     -0.000004076650
  25      0.000041548366
  26      0.000004193143
  27      0.000003396090
  28      0.000050017727
  29      0.000267998752
  30     -0.001309301493
  31      0.001645584596
  32     -0.001609650347
  33     -0.000121642442
  34     -0.001732869660
  35      0.002499055240
  36      0.001144267800
  37      0.002745549704
  38      0.000082488205
  39      0.000062555099
  40      0.000150962190
  41     -0.000178681843
  42      0.000067121156
  43     -0.000314182168
  44      0.001515666577
  45     -0.001889518372
  46     -0.001753458506
  47      0.000255100124
  48     -0.001878353022
  49      0.002596094405
  50     -0.000957117708
  51      0.002781211604
  52     -0.000065780990
  53      0.000047052668
  54     -0.000124856132
  55      0.000136477422
  56      0.000060577618
 Ene=   0.99611360102676E+00
 Spin= Alpha
 Occup=    0.000000
   1     -0.000015464991
   2      0.000549086015
   3      0.001823836755
   4      0.060415657180
   5     -0.004382160394
   6      0.067056649993
   7     -0.290001271305
   8      0.021540565338
   9     -0.321838210340
  10     -0.000641185206
  11     -0.068089690831
  12     -0.003010739933
  13      0.006301290300
  14     -0.075512324073
  15      0.000213718969
  16     -0.001254278485
  17     -0.001399665263
  18     -0.120951557838
  19      0.006536662657
  20     -0.134296668701
  21      0.249634288319
  22     -0.014707769296
  23      0.277149298461
  24      0.000331610677
  25      0.015375049300
  26      0.000597605809
  27     -0.001667106207
  28      0.017032341015
  29     -0.001822549796
  30      0.023339196178
  31      0.115351529976
  32     -0.105068307218
  33     -0.049475473603
  34     -0.117819612823
  35      0.190085171271
  36      0.072686200847
  37      0.213159350439
  38      0.000484246333
  39     -0.000203956962
  40      0.017936394396
  41     -0.004643836395
  42      0.000110919179
  43      0.001310924681
  44     -0.020193489573
  45     -0.118104563414
  46     -0.105188400088
  47      0.065967563670
  48     -0.115499895116
  49      0.189697711557
  50     -0.103650363713
  51      0.208233225904
  52     -0.000609425069
  53      0.001557221712
  54     -0.017917973095
  55      0.004799638787
  56      0.001405491865
 Ene=   0.10241734975257E+01
 Spin= Alpha
 Occup=    0.000000
   1     -0.000005065355
   2      0.000058521165
   3      0.000357265841
   4     -0.000501511620
   5     -0.000139160504
   6      0.000429305166
   7      0.007564955338
   8      0.000827833889
   9     -0.006693753390
  10      0.000044326117
  11     -0.000039517196
  12      0.000049282377
  13     -0.000087876870
  14      0.000049050372
  15      0.000000518099
  16     -0.000013656467
  17     -0.000304893559
  18      0.003300876627
  19      0.000170466582
  20     -0.002948072846
  21     -0.006074398384
  22     -0.000364144276
  23      0.005406381859
  24      0.000006107084
  25     -0.000174706621
  26     -0.000029334601
  27     -0.000025197808
  28      0.000152388944
  29     -0.000031236872
  30      0.000199486925
  31     -0.000270290191
  32      0.003106784141
  33      0.000375600787
  34     -0.002609528795
  35     -0.005983132176
  36     -0.000754461738
  37      0.005204965933
  38     -0.000273932779
  39      0.000041633295
  40     -0.000036426640
  41     -0.000133406819
  42     -0.000076391885
  43     -0.000028451598
  44      0.000188320794
  45     -0.000221160309
  46      0.002915347158
  47      0.000362916820
  48     -0.002699233404
  49     -0.005831805911
  50     -0.000721699085
  51      0.005236487355
  52      0.000259523208
  53      0.000065340148
  54      0.000034704108
  55      0.000166322993
  56     -0.000018931583
 Ene=   0.10384508001324E+01
 Spin= Alpha
 Occup=    0.000000
   1      0.000854665302
   2     -0.012493048752
   3     -0.058398127182
   4     -0.001336711593
   5      0.018069966532
   6      0.000110522686
   7      0.011127696128
   8     -0.082023095221
   9     -0.005745608832
  10     -0.006548076364
  11      0.001960618910
  12     -0.009156104519
  13      0.013147203558
  14      0.002737048670
  15      0.000852413901
  16     -0.003016863442
  17      0.047785938749
  18      0.005369093324
  19     -0.011756156506
  20     -0.002633076172
  21     -0.010041011557
  22      0.026916463175
  23      0.003712500081
  24     -0.001413182323
  25     -0.000607565663
  26      0.003255123236
  27      0.001747997936
  28     -0.000021589834
  29      0.003896078069
  30     -0.027093816793
  31      0.037985486264
  32     -0.002304613328
  33     -0.038874386368
  34     -0.009519595650
  35     -0.007102900133
  36      0.079148611975
  37      0.006142340129
  38      0.000787619462
  39      0.002245040829
  40      0.000274895557
  41     -0.002181610363
  42      0.002280677600
  43      0.004074392112
  44     -0.027441756251
  45      0.041564993547
  46      0.011439101845
  47     -0.041219728796
  48      0.005786733319
  49     -0.010060102626
  50      0.082031936750
  51      0.002844909309
  52      0.001346011531
  53     -0.002360145684
  54      0.000728859531
  55     -0.001701482858
  56     -0.002790876828
 Ene=   0.10577139920470E+01
 Spin= Alpha
 Occup=    0.000000
   1     -0.000056264823
   2     -0.000480998789
   3      0.001208763367
   4      0.000259814262
   5      0.000130914870
   6      0.000329094252
   7     -0.003381640352
   8      0.000139018748
   9     -0.004285437084
  10      0.000108684285
  11      0.000041471806
  12     -0.000600036236
  13     -0.000270933599
  14      0.000009575000
  15     -0.000279002948
  16      0.001572607375
  17     -0.001961967614
  18     -0.006460519231
  19      0.001371997077
  20     -0.007362536019
  21      0.010355505980
  22     -0.001249282328
  23      0.011885471225
  24      0.000026829561
  25      0.000693168834
  26     -0.000000392621
  27     -0.000009202384
  28      0.000784478757
  29     -0.000199544946
  30      0.001099694052
  31      0.000884779919
  32      0.002080726680
  33      0.006612774189
  34      0.004132488846
  35     -0.002903443587
  36     -0.009332980971
  37     -0.005077056851
  38     -0.000256109721
  39     -0.000327529344
  40     -0.000173861893
  41      0.000557864972
  42     -0.000329391449
  43     -0.000217556113
  44      0.001148205384
  45     -0.003614851630
  46      0.002895908750
  47     -0.008000345586
  48      0.000901501219
  49     -0.003930535869
  50      0.010898997186
  51     -0.001619646080
  52      0.000371423026
  53     -0.000312348042
  54      0.000104266716
  55     -0.000539928361
  56     -0.000392468407
 Ene=   0.10581066155869E+01
 Spin= Alpha
 Occup=    0.000000
   1      0.000000810330
   2     -0.000041027113
   3     -0.000105249997
   4     -0.000047600413
   5      0.000031062969
   6      0.000069693948
   7      0.000877415410
   8     -0.000102312595
   9     -0.000823120151
  10     -0.000050961800
  11     -0.000032122525
  12     -0.000037403638
  13     -0.000002551411
  14     -0.000025936482
  15     -0.000002354795
  16      0.000015914853
  17      0.000056086254
  18      0.000484714430
  19      0.000008286474
  20     -0.000282377096
  21     -0.000828598114
  22      0.000010974097
  23      0.000538232148
  24      0.000006508689
  25     -0.000026941182
  26      0.000005371962
  27      0.000007943916
  28      0.000014955849
  29      0.000006028850
  30     -0.000039873944
  31      0.000065082277
  32     -0.000127037651
  33     -0.000197946409
  34     -0.000044080923
  35     -0.000144662258
  36      0.000309995902
  37      0.000341903920
  38     -0.000007620374
  39      0.000009488334
  40      0.000006386203
  41     -0.000025135986
  42      0.000008257254
  43      0.000001024972
  44     -0.000023956105
  45      0.000064287499
  46      0.000719709591
  47      0.000069000831
  48     -0.000793372342
  49     -0.001036271960
  50     -0.000065538519
  51      0.001183554303
  52      0.000047049650
  53      0.000015454199
  54     -0.000000711323
  55      0.000036298350
  56     -0.000006697289
 Ene=   0.10754517055874E+01
 Spin= Alpha
 Occup=    0.000000
   1      0.000154842513
   2     -0.002231335183
   3     -0.009616938782
   4      0.001428825915
   5      0.002049854122
   6     -0.001214369780
   7     -0.020615107461
   8     -0.008646482271
   9      0.018284022590
  10     -0.000887201644
  11      0.000257244157
  12     -0.001237897986
  13      0.001804404128
  14      0.000016244805
  15      0.000335102619
  16     -0.001705241311
  17      0.007052946872
  18     -0.009088829596
  19     -0.001842209071
  20      0.008274602610
  21      0.016178396466
  22      0.003235261028
  23     -0.014720500776
  24     -0.000133112887
  25      0.000468423810
  26      0.000420821131
  27      0.000192473528
  28     -0.000445926490
  29      0.000572051737
  30     -0.004029767227
  31      0.007035043104
  32     -0.009672324898
  33     -0.004736560266
  34      0.007189530135
  35      0.016092553644
  36      0.009564590736
  37     -0.015206126173
  38      0.000897304542
  39      0.000105327801
  40      0.000189436191
  41      0.000195658266
  42      0.000500252459
  43      0.000570398585
  44     -0.004013071344
  45      0.007072115509
  46     -0.008371801207
  47     -0.004655757611
  48      0.008555567839
  49      0.017225223517
  50      0.009289550665
  51     -0.013859642335
  52     -0.000680645456
  53     -0.000463219912
  54     -0.000029095356
  55     -0.000637238369
  56     -0.000213967829
 Ene=   0.11105274097531E+01
 Spin= Alpha
 Occup=    0.000000
   1     -0.000006136038
   2      0.000070831638
   3      0.000315958372
   4      0.000303220559
   5      0.000018172877
   6     -0.000271300934
   7     -0.004278831442
   8     -0.000091608158
   9      0.003848498902
  10      0.000007161151
  11     -0.000088243441
  12     -0.000010274380
  13     -0.000009299309
  14      0.000078935231
  15     -0.000025248969
  16      0.000159839891
  17     -0.000306224256
  18     -0.003544373663
  19     -0.000084171563
  20      0.003177997526
  21      0.005122971741
  22      0.000212059400
  23     -0.004588819138
  24      0.000000072095
  25      0.000173351919
  26      0.000000407678
  27      0.000014586658
  28     -0.000154059077
  29     -0.000018012371
  30      0.000115939653
  31     -0.000224008012
  32     -0.001169495982
  33     -0.000039978817
  34      0.001060477922
  35      0.002639370113
  36      0.000051958394
  37     -0.002307983241
  38      0.000144381671
  39      0.000005169882
  40      0.000016218749
  41      0.000078338502
  42     -0.000003881061
  43     -0.000017313889
  44      0.000111432041
  45     -0.000217280360
  46     -0.001235609232
  47     -0.000048979907
  48      0.001106542096
  49      0.002635313538
  50      0.000069781344
  51     -0.002440325712
  52     -0.000141793932
  53      0.000011173983
  54     -0.000019119117
  55     -0.000088166539
  56     -0.000012281518
 Ene=   0.11185545768046E+01
 Spin= Alpha
 Occup=    0.000000
   1     -0.000022141195
   2      0.000359950403
   3      0.001379141272
   4     -0.000578118595
   5     -0.000034807236
   6     -0.000645114654
   7      0.001548759945
   8      0.000282349258
   9      0.001740521009
  10      0.000048987867
  11      0.001051421891
  12      0.000133373196
  13     -0.000184043349
  14      0.001163441655
  15     -0.000071720718
  16      0.000450418529
  17     -0.001081846809
  18      0.000997545352
  19     -0.000020694389
  20      0.001112674176
  21     -0.001930665588
  22      0.000256474226
  23     -0.002146101241
  24     -0.000000689292
  25     -0.000228613257
  26     -0.000043382921
  27      0.000025120384
  28     -0.000254702738
  29     -0.000089252601
  30      0.000301236869
  31     -0.000953126182
  32      0.001101018840
  33      0.000552408527
  34      0.001248276888
  35     -0.001796783948
  36     -0.000833623350
  37     -0.002034920255
  38     -0.000032407097
  39     -0.000046314496
  40     -0.000192676582
  41      0.000100271787
  42     -0.000051887635
  43     -0.000048491284
  44      0.000653020542
  45     -0.000999863439
  46      0.001083824397
  47     -0.000274104338
  48      0.001199109198
  49     -0.002148409175
  50      0.000138369405
  51     -0.002389935196
  52      0.000036426496
  53     -0.000030066984
  54      0.000177004689
  55     -0.000098287578
  56     -0.000033386435
 Ene=   0.11357288112298E+01
 Spin= Alpha
 Occup=    0.000000
   1      0.000226716261
   2     -0.003846936706
   3     -0.014294103942
   4      0.000000962481
   5     -0.000556240167
   6     -0.000161451635
   7     -0.000499081405
   8     -0.001191023233
   9      0.001152858341
  10      0.000199621668
  11      0.000098507112
  12     -0.000125510021
  13     -0.000323973824
  14      0.000073992265
  15      0.000913905820
  16     -0.006135693617
  17      0.013020567857
  18     -0.000034801776
  19      0.000511929955
  20      0.000931069849
  21     -0.000007330148
  22     -0.004550496400
  23     -0.001678091430
  24      0.000066294927
  25     -0.000048971848
  26      0.000192349836
  27     -0.000149092904
  28     -0.000098784201
  29      0.000628858677
  30     -0.004256026589
  31      0.009061416255
  32     -0.000101401272
  33     -0.000227582364
  34      0.000620865198
  35     -0.001338328035
  36      0.001314357221
  37     -0.002786191229
  38     -0.000082795211
  39      0.000037256967
  40      0.000023235043
  41      0.000217612484
  42      0.000058897631
  43      0.000665153915
  44     -0.004413629524
  45      0.009577026589
  46     -0.000702898318
  47      0.000677191679
  48     -0.000017683006
  49      0.002707644983
  50      0.000023130475
  51      0.001671404887
  52     -0.000180844639
  53     -0.000009308259
  54      0.000032391122
  55      0.000223717501
  56      0.000006628117
 Ene=   0.11564311659432E+01
 Spin= Alpha
 Occup=    0.000000
   1      0.000002288196
   2     -0.000036988341
   3     -0.000135221081
   4     -0.000005593574
   5     -0.000005189638
   6     -0.000000882587
   7      0.000042582418
   8      0.000009697957
   9     -0.000014886646
  10      0.000015287445
  11      0.000004237096
  12      0.000000622571
  13      0.000003484523
  14      0.000006406318
  15      0.000008199329
  16     -0.000054211583
  17      0.000106442386
  18      0.000027230938
  19      0.000004474000
  20     -0.000000880120
  21     -0.000045593393
  22     -0.000039883761
  23     -0.000001103717
  24     -0.000011582628
  25     -0.000002360066
  26     -0.000001466186
  27     -0.000007685621
  28     -0.000002252693
  29      0.000005758033
  30     -0.000041407824
  31      0.000091096182
  32      0.000178139207
  33      0.000002737365
  34     -0.000148489254
  35     -0.000214906789
  36      0.000004769810
  37      0.000138278893
  38     -0.000008156765
  39      0.000000600606
  40     -0.000001771703
  41     -0.000002008463
  42     -0.000000042529
  43      0.000006927678
  44     -0.000045409333
  45      0.000102671451
  46     -0.000145781758
  47      0.000011123364
  48      0.000127344950
  49      0.000156234701
  50     -0.000009427772
  51     -0.000103230973
  52     -0.000005827727
  53      0.000000006352
  54     -0.000000108345
  55     -0.000000094988
  56      0.000000112832
 Ene=   0.14550806782331E+01
 Spin= Alpha
 Occup=    0.000000
   1     -0.008764158859
   2      0.087162774423
   3      0.200568987639
   4     -0.002200111229
   5     -0.245219984198
   6     -0.010472951032
   7     -0.016951527882
   8     -1.730644234131
   9     -0.076012456914
  10      0.063464951139
  11     -0.006358631911
  12      0.127877665027
  13     -0.136425230738
  14     -0.012766915358
  15      0.101017143638
  16     -0.768728754007
  17      2.090465859461
  18      0.000175544470
  19      0.036158951398
  20      0.001315502487
  21     -0.005070986450
  22     -0.658144163912
  23     -0.025947257876
  24      0.021193212980
  25     -0.000694049345
  26     -0.002336321192
  27     -0.036111268147
  28     -0.002725789363
  29     -0.065783268308
  30      0.507312982694
  31     -1.264996890990
  32     -0.058057621703
  33     -0.121634058103
  34     -0.068876511045
  35      0.414452612384
  36      0.205369290810
  37      0.467760548362
  38     -0.004798221045
  39     -0.012331090924
  40      0.030894829661
  41      0.002787121686
  42     -0.012532595477
  43     -0.066319433680
  44      0.511176980976
  45     -1.275857100152
  46      0.056584274434
  47     -0.127197419578
  48      0.058442086192
  49     -0.412420870356
  50      0.246523378250
  51     -0.450643627243
  52     -0.004677386158
  53      0.010154082901
  54      0.032118745892
  55      0.000222520667
  56      0.012398887171
 Ene=   0.14754802323485E+01
 Spin= Alpha
 Occup=    0.000000
   1      0.000000148750
   2     -0.000002491639
   3     -0.000008845663
   4      0.000044369175
   5     -0.000007927913
   6      0.000048024025
   7      0.000318371870
   8     -0.000055065798
   9      0.000385919031
  10     -0.007224671298
  11      0.000022576859
  12     -0.000883183008
  13     -0.004159318162
  14     -0.000348236433
  15      0.000003105993
  16     -0.000022533471
  17      0.000055651156
  18      0.000027817211
  19      0.000000201235
  20      0.000025151811
  21     -0.000065066762
  22     -0.000013195813
  23     -0.000105520837
  24     -0.000770123443
  25      0.000030763001
  26     -0.000094890230
  27     -0.000443879098
  28     -0.000039311562
  29     -0.000023042465
  30      0.000180992379
  31     -0.000532120218
  32      0.000298019760
  33      0.000027668033
  34     -0.000264724495
  35      0.001597385655
  36     -0.000074687276
  37     -0.001276024281
  38      0.001535595201
  39     -0.000975081925
  40      0.000163290908
  41      0.000821682043
  42      0.000921103540
  43      0.000021640217
  44     -0.000168953054
  45      0.000497773024
  46     -0.000310990698
  47     -0.000033718051
  48      0.000285130643
  49     -0.001425220259
  50      0.000079236178
  51      0.001426074849
  52      0.001567310077
  53      0.000924303560
  54      0.000218390733
  55      0.000966915141
  56     -0.000782159534
 Ene=   0.14763768575688E+01
 Spin= Alpha
 Occup=    0.000000
   1     -0.000000436067
   2      0.000025642002
   3      0.000025592981
   4      0.005345064574
   5     -0.000345320860
   6      0.005655907114
   7      0.038627626298
   8     -0.002602831164
   9      0.045074819503
  10     -0.745705804111
  11      0.001140926860
  12     -0.091388575202
  13     -0.429120929235
  14     -0.034426375784
  15      0.000028491542
  16     -0.000223470655
  17      0.000588880998
  18      0.003095369295
  19     -0.000135296296
  20      0.002696268593
  21     -0.007754333056
  22      0.000381907218
  23     -0.012439159710
  24     -0.080451260518
  25      0.003347412621
  26     -0.009749259011
  27     -0.046291156984
  28     -0.004519937677
  29     -0.002797039814
  30      0.021535154071
  31     -0.061777623256
  32      0.043829414611
  33      0.003570206432
  34     -0.038582313835
  35      0.153318757364
  36     -0.010462852267
  37     -0.120671264197
  38      0.159063194918
  39     -0.101243328161
  40      0.016816628148
  41      0.085121001652
  42      0.095249331218
  43      0.002765498028
  44     -0.021288263513
  45      0.061119235003
  46     -0.043277948561
  47     -0.003687935684
  48      0.039551284385
  49     -0.135930443542
  50      0.009681998768
  51      0.140337565898
  52      0.163170331680
  53      0.095684649824
  54      0.022485813170
  55      0.100433478282
  56     -0.081277289419
 Ene=   0.14858805362551E+01
 Spin= Alpha
 Occup=    0.000000
   1     -0.000001584466
   2     -0.000044965199
   3     -0.000028477074
   4     -0.018242113459
   5      0.001031043663
   6     -0.020256629124
   7     -0.141907005287
   8      0.008104906246
   9     -0.157583308659
  10      0.000354199650
  11      0.013010716809
  12      0.000539226210
  13     -0.000820763625
  14      0.014422831096
  15      0.000004497253
  16      0.000082324409
  17     -0.000592573600
  18     -0.009547158485
  19      0.000443546269
  20     -0.010606313619
  21      0.034886423303
  22     -0.001545333975
  23      0.038769354706
  24      0.000029070969
  25     -0.001666762083
  26     -0.000074188390
  27      0.000182496859
  28     -0.001834786978
  29      0.009794778511
  30     -0.075665212001
  31      0.218683898161
  32     -0.001466396020
  33     -0.007993497066
  34     -0.001686869535
  35     -0.030775625886
  36      0.052709263192
  37     -0.032477509847
  38     -0.000681769444
  39      0.002206489053
  40     -0.002462411041
  41      0.001395729234
  42      0.002364934686
  43     -0.009807446767
  44      0.075648457813
  45     -0.218041225041
  46     -0.001225660053
  47      0.008294537203
  48     -0.001304200118
  49     -0.031256421742
  50     -0.049612917874
  51     -0.036417384803
  52      0.000612953931
  53      0.001806367212
  54      0.002726512469
  55     -0.001954059774
  56      0.002071545133
 Ene=   0.14863986625025E+01
 Spin= Alpha
 Occup=    0.000000
   1      0.000010311768
   2      0.000010432553
   3      0.000143474709
   4     -0.000508777771
   5     -0.000072621164
   6     -0.000568750114
   7     -0.003972716439
   8     -0.000791675092
   9     -0.004447038583
  10     -0.000008401165
  11      0.000355587514
  12      0.000084405645
  13     -0.000136437278
  14      0.000394928545
  15      0.000052061432
  16     -0.000402914661
  17      0.001143830871
  18     -0.000264638871
  19      0.000024909420
  20     -0.000298554307
  21      0.000970552122
  22     -0.000397647333
  23      0.001070121678
  24      0.000007138372
  25     -0.000045692835
  26     -0.000017711978
  27     -0.000017956626
  28     -0.000053683003
  29      0.000239749132
  30     -0.001850464180
  31      0.005416173010
  32     -0.000126900574
  33     -0.000299807898
  34     -0.000153772810
  35     -0.000582318410
  36      0.001613933569
  37     -0.000612715070
  38     -0.000014633674
  39      0.000043579158
  40     -0.000026599067
  41      0.000046851912
  42      0.000063325509
  43     -0.000308007299
  44      0.002377082321
  45     -0.006785133795
  46      0.000053048331
  47      0.000152895759
  48      0.000065104211
  49     -0.001150609742
  50     -0.001223487595
  51     -0.001297593233
  52      0.000021953683
  53      0.000066399190
  54      0.000120917710
  55     -0.000045230854
  56      0.000062104151
 Ene=   0.14957286187796E+01
 Spin= Alpha
 Occup=    0.000000
   1     -0.000000531804
   2      0.000003799929
   3      0.000003767272
   4      0.000492346551
   5     -0.000031556195
   6      0.000544696304
   7      0.004040262663
   8     -0.000271834034
   9      0.004498431786
  10      0.000013404797
  11     -0.000446999198
  12     -0.000015247460
  13      0.000037574932
  14     -0.000348079620
  15      0.000003254223
  16     -0.000025042485
  17      0.000067146620
  18      0.000347787284
  19     -0.000012943602
  20      0.000374306794
  21     -0.001037582530
  22      0.000033280694
  23     -0.001196389973
  24      0.000004285233
  25      0.000048154734
  26      0.000000679331
  27     -0.000002011819
  28      0.000011868519
  29     -0.000277238032
  30      0.002142282107
  31     -0.006217119019
  32     -0.000009272812
  33      0.000217042310
  34      0.000004785100
  35      0.000905342463
  36     -0.001460717690
  37      0.000975012840
  38      0.000002337236
  39     -0.000053027690
  40      0.000094278046
  41     -0.000061793196
  42     -0.000060304097
  43      0.000273521250
  44     -0.002113513805
  45      0.006139204845
  46     -0.000006736496
  47     -0.000230554597
  48     -0.000009613085
  49      0.000906846420
  50      0.001386598474
  51      0.001058019558
  52     -0.000011373062
  53     -0.000048847940
  54     -0.000097640435
  55      0.000066992500
  56     -0.000043961049
 Ene=   0.15009826170268E+01
 Spin= Alpha
 Occup=    0.000000
   1     -0.000031539943
   2      0.000328678193
   3      0.000631862364
   4      0.011669924081
   5     -0.000634965837
   6     -0.010479029363
   7     -0.053454392301
   8     -0.009290240476
   9      0.048168861508
  10     -0.002391413583
  11     -0.641269542682
  12     -0.020825295150
  13     -0.039331701040
  14      0.575761492060
  15      0.000438382571
  16     -0.003346343244
  17      0.009228589718
  18      0.052763843977
  19      0.001703704656
  20     -0.047397948185
  21      0.185888348837
  22      0.002553486056
  23     -0.167385661666
  24      0.003409729896
  25      0.183307859742
  26      0.006300719378
  27      0.012414989733
  28     -0.164538127692
  29     -0.000287681722
  30      0.002239196310
  31     -0.005710922413
  32     -0.029792104626
  33     -0.001333669670
  34      0.026285520369
  35     -0.045182482956
  36     -0.000437974389
  37      0.044408740756
  38     -0.117672814738
  39     -0.017561439770
  40     -0.014717584953
  41     -0.068927853695