[Molden Format]
[Title]
generated by TRESC, real part1 of MOs of job CO3
 
[Atoms] AU
 C   1   6    0.3364484192    5.8882927452    0.3891081484
 O   2   8    2.6974300312    5.9862747024    0.4085979628
 O   3   8   -0.7714112401    7.4618585764    1.8371371576
 O   4   8   -0.6184572465    4.2284969646   -1.0743142370
[GTO]
  1 0
 s  5 1.0
     1238.4016938000        0.0059599745
      186.2900499200        0.0422621111
       42.2511763500        0.1866575214
       11.6765579300        0.4675815865
        3.5930506500        0.4422897287
 s  1 1.0
        0.4024514700        1.0000000000
 s  1 1.0
        0.1309018300        1.0000000000
 p  3 1.0
        9.4680970600        0.0570294585
        2.0103545100        0.3130471495
        0.5477100500        0.7605135301
 p  1 1.0
        0.1526861400        1.0000000000
 d  1 1.0
        0.8000000000        1.0000000000
 
  2 0
 s  5 1.0
     2266.1767785000        0.0060711540
      340.8701019100        0.0417308970
       77.3631351700        0.1850777598
       21.4796449400        0.4668774046
        6.6589433100        0.4435718061
 s  1 1.0
        0.8097597600        1.0000000000
 s  1 1.0
        0.2553077200        1.0000000000
 p  3 1.0
       17.7215043200        0.0628680198
        3.8635505400        0.3334973703
        1.0480920900        0.7412421661
 p  1 1.0
        0.2764154400        1.0000000000
 d  1 1.0
        1.2000000000        1.0000000000
 
  3 0
 s  5 1.0
     2266.1767785000        0.0060711540
      340.8701019100        0.0417308970
       77.3631351700        0.1850777598
       21.4796449400        0.4668774046
        6.6589433100        0.4435718061
 s  1 1.0
        0.8097597600        1.0000000000
 s  1 1.0
        0.2553077200        1.0000000000
 p  3 1.0
       17.7215043200        0.0628680198
        3.8635505400        0.3334973703
        1.0480920900        0.7412421661
 p  1 1.0
        0.2764154400        1.0000000000
 d  1 1.0
        1.2000000000        1.0000000000
 
  4 0
 s  5 1.0
     2266.1767785000        0.0060711540
      340.8701019100        0.0417308970
       77.3631351700        0.1850777598
       21.4796449400        0.4668774046
        6.6589433100        0.4435718061
 s  1 1.0
        0.8097597600        1.0000000000
 s  1 1.0
        0.2553077200        1.0000000000
 p  3 1.0
       17.7215043200        0.0628680198
        3.8635505400        0.3334973703
        1.0480920900        0.7412421661
 p  1 1.0
        0.2764154400        1.0000000000
 d  1 1.0
        1.2000000000        1.0000000000
 
[5D]
[7F]
[9G]
[MO]
 Ene=  -0.19334310470445E+02
 Spin= Alpha
 Occup=    1.000000
   1     -0.000040988998
   2     -0.000141624355
   3     -0.001523661203
   4      0.000029610676
   5      0.000012435866
   6      0.000033308729
   7      0.002005625087
   8      0.000930310597
   9      0.002262024236
  10      0.000051858793
  11      0.000176944918
  12      0.000185578515
  13     -0.000140971737
  14      0.000194502040
  15      0.002729450912
  16      0.000315768114
  17     -0.000514362563
  18      0.000033362781
  19     -0.000079379830
  20      0.000034583235
  21     -0.000409556929
  22      0.000200193700
  23     -0.000449388203
  24     -0.000002385648
  25      0.000049392954
  26     -0.000035100777
  27      0.000008614228
  28      0.000054375155
  29      0.017830263932
  30      0.001038205946
  31     -0.001569258322
  32     -0.000036491713
  33      0.000088095952
  34     -0.000037578432
  35      0.000039927637
  36     -0.000683368277
  37      0.000021415741
  38      0.000041255959
  39      0.000039103557
  40      0.000039444115
  41     -0.000082358345
  42      0.000039380500
  43     -0.164428684926
  44     -0.007718531934
  45      0.006323392377
  46     -0.000310280547
  47     -0.000213021685
  48     -0.000352166598
  49      0.000882474000
  50      0.000665353816
  51      0.001003901545
  52     -0.000011873466
  53     -0.000010264437
  54     -0.000003899671
  55      0.000022230201
  56     -0.000009433437
 Ene=  -0.19333481992022E+02
 Spin= Alpha
 Occup=    1.000000
   1      0.000093959007
   2      0.000321504974
   3      0.003476087235
   4      0.000041657979
   5     -0.000032763975
   6      0.000045277442
   7      0.002936128102
   8     -0.002522403293
   9      0.003181686444
  10     -0.000110279477
  11      0.000295580419
  12     -0.000391431215
  13      0.000254705937
  14      0.000331341156
  15     -0.006788251407
  16     -0.000747692383
  17      0.001187448859
  18      0.000051908602
  19      0.000176795847
  20      0.000063307465
  21     -0.000610216907
  22     -0.000379312886
  23     -0.000690287086
  24      0.000008147515
  25      0.000065774822
  26      0.000089972808
  27     -0.000037496737
  28      0.000074084149
  29      0.302200342060
  30      0.014104797461
  31     -0.011264417430
  32     -0.000564052421
  33      0.000427088014
  34     -0.000612861306
  35      0.001624136543
  36     -0.001149276431
  37      0.001767796980
  38      0.000004645849
  39     -0.000037140541
  40     -0.000008905416
  41     -0.000004421746
  42     -0.000041131759
  43      0.032391388968
  44      0.001142789793
  45      0.000411240937
  46      0.000053779442
  47     -0.000073292785
  48      0.000057321580
  49     -0.000260559873
  50      0.001009817171
  51     -0.000255846706
  52     -0.000070966079
  53      0.000087249012
  54     -0.000064593704
  55      0.000130634746
  56      0.000103605293
 Ene=  -0.19328598003944E+02
 Spin= Alpha
 Occup=    0.999999
   1      0.000003033510
   2      0.000005150499
   3      0.000108498396
   4      0.000000043039
   5     -0.000001863668
   6     -0.000000038919
   7      0.000007720064
   8      0.000117674708
   9      0.000012489568
  10      0.000008503723
  11      0.000000161820
  12      0.000004432360
  13     -0.000015673181
  14     -0.000000464933
  15      0.008714055134
  16      0.000402972327
  17     -0.000305982624
  18     -0.000000139742
  19     -0.000026961117
  20     -0.000000615828
  21     -0.000000787692
  22      0.000069426643
  23      0.000001123969
  24     -0.000001161401
  25     -0.000000425935
  26      0.000002220044
  27      0.000001552542
  28     -0.000000150991
  29      0.000499089720
  30      0.000013093444
  31     -0.000002389934
  32      0.000002330172
  33      0.000000576568
  34      0.000002600551
  35     -0.000009367642
  36     -0.000018238800
  37     -0.000011021955
  38     -0.000000199955
  39      0.000001964507
  40      0.000002253308
  41     -0.000000257480
  42      0.000002151722
  43     -0.000122334464
  44     -0.000016527209
  45      0.000024252265
  46     -0.000003488629
  47     -0.000000119532
  48     -0.000003894696
  49      0.000012168241
  50     -0.000014805202
  51      0.000013048634
  52     -0.000000357135
  53     -0.000001959926
  54      0.000001869505
  55      0.000000351114
  56     -0.000002189394
 Ene=  -0.19312962051608E+02
 Spin= Alpha
 Occup=    0.000000
   1      0.000000008981
   2      0.000000038928
   3      0.000000066158
   4      0.000000014918
   5     -0.000000037880
   6     -0.000000011080
   7      0.000000056915
   8     -0.000000307891
   9      0.000000069947
  10      0.000000015439
  11      0.000000008425
  12      0.000000006417
  13     -0.000000004740
  14     -0.000000041516
  15     -0.000015699377
  16     -0.000000738155
  17      0.000000594322
  18      0.000000015484
  19      0.000000055749
  20      0.000000006978
  21     -0.000000011381
  22     -0.000000175218
  23     -0.000000022069
  24     -0.000000021844
  25     -0.000000016324
  26     -0.000000012900
  27      0.000000015655
  28      0.000000015723
  29      0.000015739521
  30      0.000000723339
  31     -0.000000564228
  32     -0.000000030047
  33      0.000000029888
  34     -0.000000027960
  35      0.000000109842
  36     -0.000000048192
  37      0.000000123173
  38      0.000000010836
  39      0.000000082310
  40     -0.000000004882
  41      0.000000005246
  42     -0.000000025981
  43      0.000006736603
  44      0.000000324302
  45     -0.000000243510
  46     -0.000000076719
  47      0.000000153437
  48      0.000000015361
  49     -0.000000024864
  50     -0.000000056306
  51     -0.000000075241
  52      0.000000047837
  53     -0.000000432535
  54      0.000000021824
  55     -0.000000017607
  56      0.000000213411
 Ene=  -0.19312256993248E+02
 Spin= Alpha
 Occup=    0.000000
   1      0.000000018352
   2      0.000000069856
   3      0.000000454706
   4     -0.000000012190
   5     -0.000000037074
   6      0.000000021727
   7      0.000000454458
   8     -0.000000456138
   9      0.000000459083
  10      0.000000009818
  11      0.000000036048
  12     -0.000000029484
  13      0.000000009405
  14      0.000000107713
  15     -0.000009436250
  16     -0.000000490813
  17      0.000000463109
  18     -0.000000007509
  19      0.000000051487
  20      0.000000005139
  21     -0.000000098996
  22     -0.000000147607
  23     -0.000000106448
  24     -0.000000018521
  25      0.000000033278
  26      0.000000001777
  27      0.000000009491
  28     -0.000000005447
  29      0.000044477665
  30      0.000002098836
  31     -0.000001710082
  32      0.000000025662
  33      0.000000211998
  34     -0.000000089377
  35      0.000000205697
  36     -0.000000259321
  37      0.000000282468
  38      0.000000048812
  39      0.000000413361
  40      0.000000033709
  41     -0.000000009289
  42     -0.000000210987
  43      0.000007604203
  44      0.000000288008
  45     -0.000000031907
  46      0.000000034031
  47     -0.000000030245
  48      0.000000008910
  49     -0.000000079372
  50      0.000000146048
  51     -0.000000071282
  52     -0.000000011083
  53      0.000000021370
  54     -0.000000020415
  55      0.000000026378
  56     -0.000000007794
 Ene=  -0.19308236110753E+02
 Spin= Alpha
 Occup=    0.000001
   1      0.000000016062
   2      0.000000028179
   3      0.000000544061
   4     -0.000000044323
   5     -0.000000006439
   6      0.000000003291
   7      0.000000643076
   8      0.000000584936
   9      0.000000663493
  10      0.000000043110
  11      0.000000133881
  12      0.000000029492
  13     -0.000000085055
  14      0.000000040307
  15      0.000044731496
  16      0.000002071034
  17     -0.000001574419
  18      0.000000246404
  19     -0.000000139944
  20      0.000000000831
  21     -0.000000247970
  22      0.000000366297
  23     -0.000000111916
  24     -0.000000007045
  25     -0.000000238070
  26      0.000000018480
  27      0.000000020286
  28     -0.000000276432
  29      0.000028037405
  30      0.000001246666
  31     -0.000001055813
  32     -0.000000036924
  33      0.000000024487
  34     -0.000000040297
  35      0.000000048522
  36     -0.000000267730
  37      0.000000060180
  38     -0.000000005263
  39     -0.000000024865
  40      0.000000028491
  41      0.000000001914
  42      0.000000031992
  43     -0.000027374403
  44     -0.000001322116
  45      0.000001209201
  46     -0.000000067400
  47     -0.000000018362
  48     -0.000000078662
  49      0.000000168233
  50      0.000000086535
  51      0.000000206122
  52      0.000000003303
  53     -0.000000040910
  54     -0.000000008755
  55     -0.000000002686
  56      0.000000009991
 Ene=  -0.10448691277107E+02
 Spin= Alpha
 Occup=    0.000000
   1      0.000005966803
   2      0.000000319170
   3      0.000000009982
   4      0.000000008117
   5      0.000000001944
   6      0.000000016334
   7     -0.000000014467
   8      0.000000004872
   9     -0.000000021155
  10     -0.000000012215
  11      0.000000010878
  12      0.000000026557
  13      0.000000008571
  14     -0.000000067463
  15      0.000000000969
  16      0.000000002363
  17     -0.000000059640
  18     -0.000000052735
  19      0.000000005064
  20      0.000000004857
  21      0.000000068356
  22      0.000000045029
  23      0.000000028780
  24      0.000000003415
  25     -0.000000227252
  26     -0.000000009417
  27     -0.000000005105
  28     -0.000000003035
  29      0.000000017218
  30     -0.000000016636
  31     -0.000000036339
  32      0.000000048064
  33      0.000000024675
  34      0.000000009160
  35     -0.000000004989
  36     -0.000000062516
  37      0.000000020846
  38      0.000000091119
  39      0.000000005419
  40      0.000000051917
  41     -0.000000054142
  42      0.000000112009
  43     -0.000000017653
  44      0.000000025100
  45     -0.000000082231
  46      0.000000034443
  47     -0.000000033641
  48      0.000000000387
  49     -0.000000060745
  50      0.000000024250
  51     -0.000000042551
  52     -0.000000079192
  53      0.000000005853
  54     -0.000000064000
  55      0.000000048716
  56      0.000000105191
 Ene=  -0.10444246848125E+02
 Spin= Alpha
 Occup=    1.000000
   1      0.204819405809
   2      0.010935729723
   3      0.000330713797
   4      0.000001569635
   5      0.000103051785
   6      0.000004292161
   7      0.000001950067
   8      0.000112228605
   9      0.000004269329
  10     -0.000233034745
  11     -0.000028891312
  12      0.000838774552
  13      0.000225272793
  14      0.000012876924
  15     -0.000005014960
  16      0.000084216324
  17     -0.002021824733
  18      0.000002019654
  19      0.000255606222
  20      0.000010488460
  21      0.000013139388
  22      0.001554140265
  23      0.000065147653
  24      0.000156512896
  25     -0.000004664008
  26      0.000003673592
  27     -0.000271050059
  28     -0.000022148107
  29      0.000002097248
  30      0.000150578390
  31     -0.002037645840
  32      0.000151472683
  33     -0.000136663271
  34      0.000163823583
  35      0.001000419773
  36     -0.000725792239
  37      0.001088811698
  38     -0.000013472119
  39      0.000196757571
  40     -0.000268519689
  41      0.000067684392
  42      0.000213799758
  43      0.000002327824
  44      0.000152648794
  45     -0.002037508216
  46     -0.000152990168
  47     -0.000120082387
  48     -0.000174281265
  49     -0.001010395326
  50     -0.000620725196
  51     -0.001144352575
  52     -0.000018034989
  53     -0.000173395543
  54     -0.000287798436
  55      0.000104290597
  56     -0.000196668689
 Ene=  -0.12357292869971E+01
 Spin= Alpha
 Occup=    1.000000
   1      0.172314254727
   2     -0.335669559323
   3     -0.011077298433
   4     -0.000422629591
   5     -0.038673322458
   6     -0.001633008820
   7     -0.000064894603
   8     -0.003992784763
   9     -0.000204598297
  10      0.006661709272
  11      0.000654556230
  12     -0.020279902955
  13     -0.007216071490
  14     -0.000480607646
  15      0.152555268816
  16     -0.305622084469
  17     -0.154372405307
  18      0.000854528133
  19      0.108944895598
  20      0.004434103600
  21      0.000224739297
  22      0.026483638950
  23      0.001105730536
  24      0.004787744442
  25      0.000097194716
  26     -0.005048104754
  27     -0.007195852254
  28     -0.000537899763
  29      0.122809944010
  30     -0.245710254225
  31     -0.130750153510
  32      0.050908566011
  33     -0.045652835001
  34      0.055133158104
  35      0.014132355447
  36     -0.012451992219
  37      0.015305828331
  38     -0.001242471826
  39      0.004428519223
  40     -0.002762545354
  41      0.002460111410
  42      0.004980501475
  43      0.123000041093
  44     -0.246137086005
  45     -0.131229123801
  46     -0.051521218681
  47     -0.040216275458
  48     -0.058617218579
  49     -0.014369721852
  50     -0.010998018852
  51     -0.016347081055
  52     -0.001396954806
  53     -0.004106617740
  54     -0.003116637637
  55      0.003341240867
  56     -0.004472350662
 Ene=  -0.11999142658920E+01
 Spin= Alpha
 Occup=    0.000000
   1      0.000000062784
   2     -0.000000121179
   3     -0.000000004855
   4     -0.000010293490
   5      0.000000281898
   6     -0.000001453228
   7      0.000003334092
   8     -0.000000002798
   9     -0.000001272845
  10     -0.000000032007
  11      0.000001183670
  12      0.000000025570
  13     -0.000000027144
  14      0.000000059135
  15     -0.000000021882
  16      0.000000081016
  17     -0.000000036222
  18      0.000115293292
  19     -0.000001185495
  20      0.000005191964
  21     -0.000001103607
  22      0.000000065747
  23     -0.000000376720
  24     -0.000000043087
  25     -0.000003130881
  26     -0.000000134879
  27      0.000000009987
  28      0.000000087579
  29      0.000001266790
  30     -0.000003420848
  31      0.000001135523
  32     -0.000046567881
  33     -0.000054976358
  34      0.000002072726
  35     -0.000001881165
  36      0.000002239664
  37      0.000000072754
  38      0.000001276981
  39     -0.000000083963
  40      0.000001170688
  41     -0.000000697996
  42      0.000000698854
  43     -0.000001089704
  44      0.000003035527
  45     -0.000001276818
  46     -0.000040603411
  47      0.000055268594
  48      0.000001913585
  49     -0.000001817112
  50     -0.000002170594
  51     -0.000000198238
  52     -0.000001122098
  53      0.000000115811
  54     -0.000001132713
  55      0.000000665219
  56      0.000000766702
 Ene=  -0.11171645863023E+01
 Spin= Alpha
 Occup=    1.000000
   1     -0.000003190618
   2     -0.000001865026
   3      0.000013871124
   4     -0.141883275860
   5      0.005040050678
   6     -0.157650718465
   7     -0.008701774875
   8      0.000384187710
   9     -0.009666423549
  10      0.000280435612
  11      0.012675647193
  12      0.000781293986
  13     -0.001511415898
  14      0.014043094293
  15      0.002277587238
  16     -0.004607520864
  17     -0.002682768754
  18     -0.020431908144
  19      0.002330554896
  20     -0.022650481543
  21     -0.006534673865
  22      0.000717957582
  23     -0.007246157493
  24      0.000070311453
  25      0.002428711638
  26      0.000046073000
  27     -0.000289420665
  28      0.002687220463
  29      0.158185355111
  30     -0.322318619984
  31     -0.182044959038
  32      0.046418445097
  33     -0.048729019852
  34      0.049954934061
  35      0.013108537304
  36     -0.014364789070
  37      0.014094728381
  38     -0.001056366413
  39      0.003873505970
  40      0.000281253786
  41      0.001525302856
  42      0.004407577781
  43     -0.160957518076
  44      0.328060724910
  45      0.185558212205
  46      0.047913594211
  47      0.043668363738
  48      0.054797399595
  49      0.013622576677
  50      0.012983886609
  51      0.015590616336
  52      0.001264454011
  53      0.003834598195
  54      0.000046941224
  55     -0.002436995770
  56      0.004119345434
 Ene=  -0.10968704298646E+01
 Spin= Alpha
 Occup=    1.000000
   1      0.016352721996
   2     -0.033074015525
   3     -0.005235629907
   4     -0.000548444568
   5      0.254975236017
   6      0.007736913008
   7     -0.000118700193
   8      0.012273453925
   9      0.000273736872
  10     -0.012572564264
  11      0.001325330988
  12     -0.017657983435
  13      0.025422370654
  14      0.002472515491
  15     -0.220203141268
  16      0.448081904523
  17      0.260957823979
  18     -0.001270104314
  19     -0.107506407834
  20     -0.004868610234
  21     -0.000395515906
  22     -0.030698506850
  23     -0.001423682928
  24     -0.002725114157
  25     -0.000210679099
  26      0.007206435473
  27      0.003173738970
  28      0.000226276510
  29      0.135615048110
  30     -0.277500875844
  31     -0.160909266449
  32      0.047131921128
  33     -0.008405253072
  34      0.052130772224
  35      0.014316456262
  36     -0.001033448792
  37      0.015882404912
  38     -0.002493870587
  39      0.001114859339
  40     -0.001198373613
  41      0.004507557400
  42      0.001481445030
  43      0.130308870257
  44     -0.266706315260
  45     -0.154980965079
  46     -0.045571481654
  47     -0.001979716325
  48     -0.050770153030
  49     -0.013909277735
  50      0.000851591039
  51     -0.015450945065
  52     -0.002524656377
  53     -0.000757013093
  54     -0.001236941593
  55      0.004667337038
  56     -0.000586671645
 Ene=  -0.10643539558249E+01
 Spin= Alpha
 Occup=    0.000000
   1      0.000003636890
   2     -0.000009589779
   3     -0.000005493737
   4     -0.000002324670
   5      0.000007416175
   6      0.000001848962
   7      0.000000810525
   8      0.000020210457
   9      0.000000021649
  10      0.000001112873
  11     -0.000000026298
  12     -0.000000884771
  13      0.000000527230
  14      0.000000128626
  15     -0.000051634232
  16      0.000103015658
  17      0.000073028866
  18     -0.000002494411
  19     -0.000043908362
  20     -0.000000795232
  21     -0.000000502648
  22     -0.000022622135
  23     -0.000000721081
  24     -0.000003779616
  25      0.000000096491
  26      0.000001417030
  27      0.000005404689
  28      0.000000411085
  29      0.000031961598
  30     -0.000064985311
  31     -0.000040182046
  32      0.000077502933
  33      0.000066652288
  34      0.000008092617
  35      0.000009338266
  36     -0.000002128947
  37      0.000004668638
  38     -0.000002451964
  39      0.000001092415
  40     -0.000002615896
  41      0.000002137422
  42      0.000000328521
  43      0.000030889218
  44     -0.000062850351
  45     -0.000038819170
  46     -0.000070164444
  47      0.000069350860
  48     -0.000007776391
  49     -0.000009183572
  50     -0.000001415856
  51     -0.000004633989
  52     -0.000002303526
  53     -0.000000639622
  54     -0.000002633347
  55      0.000002258167
  56      0.000000055368
 Ene=  -0.10456283450565E+01
 Spin= Alpha
 Occup=    0.000000
   1     -0.000000034278
   2      0.000000101952
   3      0.000000083996
   4      0.000061390015
   5      0.000000659906
   6     -0.000017928091
   7     -0.000022904080
   8      0.000000028696
   9      0.000001521203
  10     -0.000000150442
  11     -0.000003336564
  12     -0.000000163705
  13      0.000000210835
  14     -0.000002286028
  15     -0.000000067474
  16      0.000000121051
  17      0.000000024600
  18     -0.000129949196
  19      0.000001826317
  20     -0.000012068927
  21     -0.000004994337
  22      0.000000354616
  23     -0.000004936125
  24      0.000000089056
  25      0.000003836645
  26      0.000000176633
  27     -0.000000105540
  28      0.000000460017
  29      0.000016018674
  30     -0.000031228239
  31     -0.000026131097
  32      0.000001576188
  33     -0.000058372330
  34     -0.000000992352
  35      0.000010842408
  36     -0.000009155816
  37      0.000004551097
  38      0.000000018766
  39      0.000003129911
  40     -0.000002180916
  41      0.000000284849
  42      0.000003182401
  43     -0.000016076455
  44      0.000031325789
  45      0.000026200426
  46      0.000008922447
  47      0.000057422285
  48     -0.000001423109
  49      0.000011519057
  50      0.000008594958
  51      0.000004866212
  52      0.000000266958
  53      0.000002974713
  54      0.000002507969
  55     -0.000000756469
  56      0.000003017774
 Ene=  -0.62427515205324E+00
 Spin= Alpha
 Occup=    0.999999
   1      0.108729832451
   2     -0.266110012134
   3     -0.022821032035
   4      0.000645418316
   5     -0.007061186025
   6      0.000610824468
   7      0.000140856304
   8      0.003605193227
   9      0.000279393704
  10      0.001044040210
  11      0.000216852804
  12     -0.005477265309
  13     -0.000642055313
  14     -0.000040996620
  15     -0.066892343358
  16      0.141050731045
  17      0.143095678945
  18      0.001763964488
  19      0.173094947135
  20      0.006942179564
  21      0.000899486756
  22      0.084511380597
  23      0.003531731416
  24      0.004773027130
  25     -0.000311795104
  26      0.003224096916
  27     -0.008923569590
  28     -0.000792765183
  29     -0.062905514004
  30      0.132580057297
  31      0.134669380881
  32      0.096599933295
  33     -0.074601894264
  34      0.105407445114
  35      0.047828371689
  36     -0.036199723007
  37      0.052187268829
  38      0.000062816242
  39      0.003836647825
  40     -0.007148491982
  41      0.001173260815
  42      0.004099314188
  43     -0.063337087788
  44      0.133493900168
  45      0.135729447982
  46     -0.098885851905
  47     -0.066400408058
  48     -0.111751376055
  49     -0.048983788638
  50     -0.032062825357
  51     -0.055352409252
  52      0.000008973067
  53     -0.003282337827
  54     -0.007583706822
  55      0.001815548307
  56     -0.003804776978
 Ene=  -0.59607366300479E+00
 Spin= Alpha
 Occup=    0.000007
   1      0.000000758557
   2     -0.000002011345
   3      0.000000895299
   4     -0.000363782605
   5      0.000001978690
   6     -0.000256366732
   7     -0.000075055769
   8     -0.000000853371
   9     -0.000019465572
  10      0.000001465878
  11     -0.000043619510
  12     -0.000001741578
  13      0.000001609809
  14      0.000002559042
  15     -0.000003990202
  16      0.000008238082
  17      0.000010005758
  18     -0.001131687226
  19      0.000039095720
  20     -0.000363406168
  21     -0.000496823402
  22      0.000019108559
  23     -0.000194978318
  24      0.000001032113
  25      0.000041962850
  26      0.000002036640
  27     -0.000002238775
  28      0.000015372220
  29     -0.000123593110
  30      0.000262470323
  31      0.000285677511
  32      0.000451628827
  33      0.000102905600
  34      0.000183009646
  35      0.000185825962
  36     -0.000027565277
  37      0.000080453877
  38     -0.000003362873
  39      0.000006799011
  40     -0.000017389895
  41      0.000001105311
  42      0.000005308773
  43      0.000125176196
  44     -0.000265592115
  45     -0.000290652952
  46      0.000412954013
  47     -0.000138490404
  48      0.000226994179
  49      0.000170618702
  50      0.000010731686
  51      0.000105913135
  52      0.000002212891
  53      0.000004348668
  54      0.000018490268
  55     -0.000003468954
  56      0.000005053222
 Ene=  -0.58871915718396E+00
 Spin= Alpha
 Occup=    0.999982
   1     -0.000613577820
   2      0.001535975593
   3      0.000034626025
   4      0.122035072187
   5     -0.007420917191
   6      0.136035178973
   7      0.015597306301
   8     -0.001249517837
   9      0.017529980842
  10      0.000102705139
  11      0.006226571466
  12      0.000310626614
  13     -0.000538918797
  14      0.006915137874
  15      0.000042613088
  16     -0.000110447771
  17      0.000093370888
  18      0.116614254377
  19     -0.006147461054
  20      0.129926786358
  21      0.068053903091
  22     -0.003746856387
  23      0.075796684569
  24     -0.000084793879
  25     -0.006112231118
  26     -0.000321307179
  27      0.000615546890
  28     -0.006804647316
  29      0.049221846627
  30     -0.102815332915
  31     -0.117716570412
  32     -0.079568538392
  33      0.130850359155
  34     -0.084646806469
  35     -0.037477101385
  36      0.071576999991
  37     -0.039474503555
  38     -0.001460661386
  39     -0.004912222767
  40      0.005416172786
  41      0.001704307891
  42     -0.005162172373
  43     -0.048149652945
  44      0.100602107084
  45      0.115137364232
  46     -0.079839870344
  47     -0.123159274641
  48     -0.091452509207
  49     -0.037790819579
  50     -0.067919322923
  51     -0.043590158454
  52      0.001365332889
  53     -0.004494413968
  54     -0.005731555713
  55     -0.000896585086
  56     -0.005246952718
 Ene=  -0.58431734510322E+00
 Spin= Alpha
 Occup=    0.999990
   1      0.000027752605
   2     -0.000066945345
   3     -0.000012993406
   4     -0.032841394897
   5     -0.000778167027
   6      0.029445351385
   7     -0.013607496501
   8     -0.000172278927
   9      0.012230378311
  10      0.000036720947
  11     -0.000140100475
  12      0.000034417248
  13     -0.000053016247
  14      0.000114153819
  15      0.000045301109
  16     -0.000100154338
  17     -0.000210866884
  18     -0.022558370870
  19     -0.000221421690
  20      0.020206838713
  21     -0.012298210851
  22     -0.000200324299
  23      0.011010539440
  24      0.000029860549
  25      0.001568210726
  26      0.000055151269
  27      0.000090119844
  28     -0.001404367497
  29     -0.000049831427
  30      0.000104032268
  31      0.000176988170
  32     -0.029298885338
  33     -0.000020789819
  34      0.026724383783
  35     -0.016262692468
  36     -0.000161443624
  37      0.014788650041
  38      0.001859105940
  39     -0.000842805825
  40      0.000188739737
  41      0.001042967135
  42      0.000798767654
  43     -0.000014982902
  44      0.000031277009
  45      0.000090654379
  46     -0.029904192004
  47      0.000082194811
  48      0.026682673186
  49     -0.016587019126
  50     -0.000108391599
  51      0.014824786022
  52     -0.001905730339
  53     -0.000770354435
  54     -0.000266072728
  55     -0.001125138159
  56      0.000659400604
 Ene=  -0.56990454176776E+00
 Spin= Alpha
 Occup=    0.999978
   1     -0.012544775976
   2      0.028433306055
   3      0.021952133873
   4     -0.000654240864
   5     -0.358735577942
   6     -0.011552635956
   7     -0.000197515334
   8     -0.065224392084
   9     -0.001970591398
  10     -0.000321147164
  11      0.000195057908
  12     -0.001267871402
  13      0.000813867397
  14      0.000247651207
  15     -0.096374689019
  16      0.200047226133
  17      0.250759370959
  18      0.005165918428
  19      0.368603221985
  20      0.018232600065
  21      0.002736456057
  22      0.183441794399
  23      0.009303117320
  24      0.008460268111
  25     -0.000498513253
  26      0.003098474496
  27     -0.015254769806
  28     -0.001468448323
  29      0.050342008869
  30     -0.103434335977
  31     -0.133014925894
  32     -0.172604478047
  33     -0.086956453352
  34     -0.194026557275
  35     -0.090714204587
  36     -0.057983588500
  37     -0.102361054180
  38      0.003473538236
  39      0.000620732554
  40      0.012592428412
  41     -0.008665079434