[Molden Format]
[Title]
generated by TRESC, real part1 of MOs of job HO-Fe-O
 
[Atoms] AU
Fe   1  26   -0.5869356640    1.5846694120   -1.3253328659
 O   2   8    0.3176516003    0.6923332413   -4.5058909931
 O   3   8   -0.6562149084    4.6189079455   -1.7711910362
 H   4   1    0.5496400319    2.2319326884   -5.4721778109
[GTO]
  1 0
 s  6 1.0
    60923.6406430000        0.0045980778
     9147.8893982000        0.0193220084
     2081.3505927000        0.0775531983
      587.5597706700        0.2480208186
      191.0904399000        0.4675986791
       65.7327301100        0.3373548125
 s  1 1.0
      127.2589192800        1.0000000000
 s  1 1.0
       14.8309130100        1.0000000000
 s  1 1.0
        6.0653307400        1.0000000000
 s  1 1.0
       10.4499437100        1.0000000000
 s  1 1.0
        1.7245228000        1.0000000000
 s  1 1.0
        0.7177217700        1.0000000000
 s  1 1.0
        0.0914498300        1.0000000000
 s  1 1.0
        0.0337066900        1.0000000000
 p  5 1.0
      773.4375099500        0.0106099056
      182.1514971400        0.0713199466
       57.5472727600        0.2648513978
       20.6149889400        0.5090783315
        7.6348557900        0.3293226861
 p  1 1.0
        3.8719328000        1.0000000000
 p  1 1.0
        1.4924724100        1.0000000000
 p  1 1.0
        0.5606128500        1.0000000000
 d  4 1.0
       38.9681334200        0.0334987321
       10.8000670800        0.1771399682
        3.6136458000        0.4404450273
        1.2129967900        0.5720563253
 d  1 1.0
        0.3652439300        1.0000000000
 p  1 1.0
        0.1349150000        1.0000000000
 f  1 1.0
        1.5980000000        1.0000000000
 
  2 0
 s  5 1.0
     2266.1767785000        0.0060711540
      340.8701019100        0.0417308970
       77.3631351700        0.1850777598
       21.4796449400        0.4668774046
        6.6589433100        0.4435718061
 s  1 1.0
        0.8097597600        1.0000000000
 s  1 1.0
        0.2553077200        1.0000000000
 p  3 1.0
       17.7215043200        0.0628680198
        3.8635505400        0.3334973703
        1.0480920900        0.7412421661
 p  1 1.0
        0.2764154400        1.0000000000
 d  1 1.0
        1.2000000000        1.0000000000
 
  3 0
 s  5 1.0
     2266.1767785000        0.0060711540
      340.8701019100        0.0417308970
       77.3631351700        0.1850777598
       21.4796449400        0.4668774046
        6.6589433100        0.4435718061
 s  1 1.0
        0.8097597600        1.0000000000
 s  1 1.0
        0.2553077200        1.0000000000
 p  3 1.0
       17.7215043200        0.0628680198
        3.8635505400        0.3334973703
        1.0480920900        0.7412421661
 p  1 1.0
        0.2764154400        1.0000000000
 d  1 1.0
        1.2000000000        1.0000000000
 
  4 0
 s  3 1.0
       13.0107010000        0.0391282527
        1.9622572000        0.2855840539
        0.4445379600        0.7689908602
 s  1 1.0
        0.1219496200        1.0000000000
 p  1 1.0
        0.8000000000        1.0000000000
 
[5D]
[7F]
[9G]
[MO]
 Ene=  -0.26129561228042E+03
 Spin= Alpha
 Occup=    0.999916
   1      0.267360986099
   2      0.010373297420
   3      0.009390647403
   4     -0.000455235867
   5     -0.003820234239
   6      0.000349936410
   7     -0.000164797163
   8      0.000023009892
   9     -0.000011827894
  10     -0.000000449209
  11     -0.000000042720
  12      0.000001304792
  13      0.000000137767
  14     -0.000001958138
  15     -0.000000071274
  16      0.000000164722
  17      0.000005663913
  18     -0.000001894144
  19     -0.000000420797
  20     -0.000008253296
  21      0.000003464678
  22     -0.000000100697
  23      0.000000050300
  24     -0.000000099002
  25     -0.000000203366
  26      0.000000005521
  27      0.000002319145
  28      0.000000092212
  29      0.000001258880
  30      0.000004679190
  31      0.000000250845
  32      0.000000375103
  33     -0.000005471655
  34     -0.000000117810
  35     -0.000000098433
  36     -0.000000061188
  37      0.000000453970
  38     -0.000000215304
  39     -0.000000016547
  40     -0.000000034129
  41      0.000000606835
  42      0.000000226729
  43     -0.000002164480
  44      0.000001005053
  45      0.000000409960
  46     -0.000000185473
  47     -0.000001461039
  48     -0.000000806964
  49      0.000001900380
  50      0.000002684121
  51      0.000000975892
  52     -0.000000696254
  53      0.000000753685
  54     -0.000000550170
  55     -0.000000243019
  56      0.000000286190
  57     -0.000006038127
  58      0.000013749686
  59      0.000000002664
  60      0.000000772723
  61     -0.000000195529
  62      0.000000173990
  63     -0.000012214177
  64      0.000002179490
  65     -0.000002877472
  66      0.000000044216
  67     -0.000001561726
  68     -0.000005179752
  69     -0.000000219528
  70     -0.000001193488
  71      0.000000125092
  72      0.000000566316
  73     -0.000000586162
  74     -0.000001959144
 Ene=  -0.26129550242681E+03
 Spin= Alpha
 Occup=    0.000084
   1     -0.002465394700
   2     -0.000095655157
   3     -0.000086600798
   4      0.000004193686
   5      0.000035236861
   6     -0.000003225735
   7      0.000001518793
   8     -0.000000209122
   9      0.000000108548
  10      0.000000033657
  11      0.000000004453
  12     -0.000000004566
  13     -0.000000007587
  14      0.000000017291
  15      0.000000000226
  16     -0.000000001465
  17     -0.000000051355
  18      0.000000016827
  19      0.000000003907
  20      0.000000075595
  21     -0.000000031691
  22      0.000000000372
  23      0.000000014556
  24      0.000000000744
  25      0.000000001794
  26      0.000000000017
  27     -0.000000020057
  28     -0.000000006341
  29     -0.000000011154
  30     -0.000000043135
  31     -0.000000002297
  32     -0.000000001973
  33      0.000000050389
  34     -0.000000001362
  35      0.000000002356
  36      0.000000003272
  37     -0.000000003723
  38      0.000000001735
  39     -0.000000000274
  40     -0.000000001465
  41     -0.000000007067
  42     -0.000000001739
  43      0.000000021298
  44     -0.000000013200
  45     -0.000000003599
  46      0.000000001803
  47      0.000000013526
  48      0.000000007959
  49     -0.000000018439
  50     -0.000000026653
  51     -0.000000008471
  52      0.000000008234
  53     -0.000000007186
  54      0.000000004467
  55      0.000000002931
  56     -0.000000002659
  57      0.000000056036
  58     -0.000000127558
  59      0.000000000057
  60     -0.000000007244
  61      0.000000001810
  62     -0.000000001905
  63      0.000000112801
  64     -0.000000019853
  65      0.000000026545
  66      0.000000001237
  67      0.000000014207
  68      0.000000047679
  69      0.000000001452
  70      0.000000011434
  71     -0.000000001660
  72     -0.000000005188
  73      0.000000005486
  74      0.000000018076
 Ene=  -0.32009778697468E+02
 Spin= Alpha
 Occup=    1.000000
   1     -0.043608450093
   2     -0.015888964601
   3      0.094888142092
   4      0.061778732021
   5     -0.007212965945
   6      0.002359777858
   7     -0.000307700794
   8      0.000022581963
   9     -0.000014435250
  10     -0.000039773177
  11      0.000131376599
  12     -0.000022694205
  13      0.000006668787
  14      0.000027047121
  15     -0.000009070623
  16     -0.000003543111
  17     -0.000006575407
  18     -0.000000385285
  19      0.000000514177
  20     -0.000001300779
  21      0.000004169910
  22      0.000055870353
  23     -0.000016363943
  24      0.000014792656
  25      0.000009082882
  26     -0.000001802472
  27     -0.000027581452
  28      0.000010422048
  29     -0.000008085424
  30     -0.000001818701
  31      0.000001682282
  32     -0.000005022333
  33      0.000004347761
  34      0.000017322695
  35      0.000000526159
  36     -0.000000080055
  37      0.000000239889
  38      0.000000417888
  39     -0.000000029976
  40     -0.000000044507
  41      0.000000442950
  42      0.000000540779
  43     -0.000009453063
  44      0.000028394279
  45      0.000000400125
  46      0.000000349532
  47     -0.000001068953
  48     -0.000005882699
  49      0.000007590186
  50      0.000017887103
  51      0.000004180872
  52     -0.000002890486
  53      0.000002790247
  54     -0.000001065200
  55     -0.000000963801
  56      0.000000475344
  57     -0.000006485603
  58      0.000003382530
  59     -0.000000085321
  60      0.000002409962
  61     -0.000000139478
  62      0.000000790281
  63     -0.000007077381
  64     -0.000001577853
  65     -0.000002087379
  66     -0.000000186177
  67     -0.000000789232
  68     -0.000004775422
  69     -0.000000297356
  70     -0.000004403294
  71      0.000002906799
  72      0.000001074607
  73     -0.000001072139
  74     -0.000003201647
 Ene=  -0.31934233422992E+02
 Spin= Alpha
 Occup=    0.000000
   1     -0.000001010344
   2     -0.000000368507
   3      0.000002228113
   4      0.000001424509
   5     -0.000000201392
   6      0.000000054919
   7      0.000000008103
   8     -0.000000069943
   9      0.000000015485
  10      0.000004484884
  11      0.000000092584
  12     -0.000000545162
  13     -0.000000709913
  14      0.000000010813
  15      0.000000100312
  16      0.000000467701
  17     -0.000000009879
  18     -0.000000081650
  19     -0.000000196349
  20      0.000000010100
  21      0.000000039666
  22      0.000000062644
  23     -0.000000619198
  24      0.000000021443
  25      0.000000017034
  26      0.000000011284
  27     -0.000000060017
  28      0.000000132402
  29     -0.000000021022
  30     -0.000000011356
  31     -0.000000004248
  32      0.000000019592
  33      0.000000018183
  34      0.000000057187
  35      0.000000009098
  36      0.000000012082
  37      0.000000003957
  38     -0.000000001664
  39     -0.000000005440
  40     -0.000000009825
  41     -0.000000008543
  42      0.000000007113
  43     -0.000000026395
  44      0.000000106620
  45     -0.000000002958
  46      0.000000001309
  47      0.000000000106
  48      0.000000005404
  49      0.000000027498
  50      0.000000065017
  51      0.000000019238
  52      0.000000006440
  53      0.000000008095
  54     -0.000000009246
  55      0.000000004828
  56     -0.000000001031
  57     -0.000000005879
  58     -0.000000002815
  59     -0.000000000431
  60      0.000000005120
  61      0.000000000814
  62      0.000000009076
  63      0.000000005218
  64     -0.000000010543
  65      0.000000001979
  66      0.000000006703
  67      0.000000002237
  68      0.000000003631
  69     -0.000000010461
  70     -0.000000013658
  71      0.000000005611
  72     -0.000000003539
  73     -0.000000000364
  74     -0.000000007242
 Ene=  -0.27750017896061E+02
 Spin= Alpha
 Occup=    0.715743
   1     -0.000007882314
   2     -0.000003109431
   3      0.000055929583
   4      0.000051291362
   5     -0.000071024839
   6     -0.000037715844
   7      0.000013940298
   8      0.000190063267
   9     -0.000116651318
  10     -0.599667666205
  11     -0.011054298343
  12      0.016226600925
  13      0.006624319806
  14      0.000130674178
  15     -0.000073762119
  16     -0.015664496681
  17     -0.000266213523
  18      0.000451450203
  19      0.005682992235
  20      0.000066242252
  21     -0.000255588415
  22     -0.000024656977
  23      0.000022429681
  24     -0.000009304793
  25     -0.000003397918
  26     -0.000070349450
  27      0.000124660890
  28     -0.000033861051
  29      0.000047930967
  30      0.000018745708
  31      0.000014730451
  32     -0.001308829755
  33     -0.000087268293
  34     -0.000062083820
  35     -0.000023187322
  36     -0.000024458811
  37     -0.000011248244
  38      0.000000264830
  39     -0.000005700179
  40     -0.000012382551
  41     -0.000000303410
  42     -0.000005167514
  43      0.000129795516
  44     -0.000312816900
  45     -0.000022364426
  46      0.000003586010
  47      0.000015619496
  48      0.000163831310
  49     -0.000142687504
  50     -0.000182507116
  51     -0.000086265137
  52      0.000025510603
  53     -0.000044833048
  54      0.000032354811
  55      0.000002576954
  56      0.000000350201
  57     -0.000010501121
  58      0.000050053078
  59     -0.000022837703
  60     -0.000005534605
  61     -0.000002933068
  62      0.000071348443
  63     -0.000026613861
  64      0.000025811836
  65     -0.000006232100
  66     -0.000014857828
  67     -0.000008524234
  68     -0.000013336236
  69      0.000105644870
  70      0.000069068447
  71      0.000101894449
  72     -0.000009620461
  73      0.000007381514
  74      0.000078800695
 Ene=  -0.27734747218794E+02
 Spin= Alpha
 Occup=    0.411580
   1     -0.000066852127
   2     -0.000026226256
   3      0.000348377119
   4      0.000311135121
   5     -0.000371415867
   6     -0.000232143539
   7      0.000128384183
   8      0.000901194278
   9     -0.000487459986
  10     -0.004882182034
  11     -0.032655080948
  12      0.598256677907
  13     -0.000041211813
  14      0.000490838006
  15     -0.005649472241
  16     -0.000149109699
  17     -0.000941006739
  18      0.015385665815
  19      0.000133485782
  20      0.000400081485
  21     -0.005839022719
  22     -0.000071863789
  23      0.000033555125
  24      0.000042868460
  25      0.000008190020
  26      0.000007486687
  27      0.000266074580
  28     -0.000164068547
  29      0.000073992132
  30     -0.000063939381
  31     -0.000037601891
  32      0.000075464289
  33     -0.000091777696
  34      0.000978506580
  35     -0.000003749744
  36      0.000016169873
  37     -0.000043934311
  38     -0.000016933088
  39      0.000013247356
  40      0.000009668271
  41     -0.000020799510
  42     -0.000016102648
  43      0.000403529889
  44     -0.000988080057
  45     -0.000013649044
  46      0.000013830690
  47      0.000065030141
  48      0.000159712237
  49     -0.000468733875
  50     -0.000637098203
  51     -0.000219638605
  52      0.000150239354
  53     -0.000124380563
  54      0.000080182005
  55      0.000042472739
  56      0.000003830585
  57      0.000049037373
  58     -0.000184421879
  59      0.000003718617
  60      0.000015039681
  61      0.000006919654
  62     -0.000025714326
  63      0.000198583741
  64     -0.000025980103
  65      0.000061360544
  66      0.000005117461
  67     -0.000083810067
  68      0.000089005691
  69      0.000007381048
  70      0.000220545821
  71      0.000348709962
  72     -0.000069940386
  73      0.000015181902
  74      0.000238234853
 Ene=  -0.27298175977068E+02
 Spin= Alpha
 Occup=    0.897995
   1      0.000118044560
   2      0.000044824529
   3     -0.000413012979
   4     -0.000274598826
   5      0.000254438944
   6      0.000165889415
   7     -0.000114205617
   8     -0.000493516563
   9      0.000234180752
  10      0.546987864577
  11      0.275816058461
  12     -0.139621244917
  13      0.004024376139
  14      0.001828424755
  15     -0.001220212665
  16      0.008979184869
  17      0.004734943960
  18     -0.002259076916
  19     -0.002795886768
  20     -0.001659994176
  21      0.000777689308
  22     -0.000021275579
  23     -0.000018738734
  24     -0.000032576753
  25     -0.000059237450
  26      0.000069352202
  27      0.000046177011
  28      0.000016870000
  29      0.000046315334
  30      0.000180261773
  31     -0.000014747961
  32      0.000633570795
  33      0.000140266044
  34     -0.000091928403
  35     -0.000005246195
  36      0.000027107634
  37      0.000060782704
  38     -0.000016023273
  39     -0.000006304933
  40      0.000012176294
  41      0.000028380608
  42      0.000003771928
  43     -0.000081861034
  44      0.000228724798
  45      0.000011602374
  46     -0.000001392837
  47     -0.000007653445
  48     -0.000069162656
  49      0.000108710536
  50      0.000061811582
  51      0.000031305554
  52     -0.000010645174
  53      0.000022993388
  54     -0.000029090469
  55     -0.000002144843
  56     -0.000003925778
  57     -0.000091486134
  58      0.000394004150
  59      0.000010372951
  60     -0.000036728219
  61      0.000007870380
  62     -0.000018114116
  63     -0.000352805706
  64      0.000034465827
  65     -0.000068421387
  66      0.000007893397
  67     -0.000024639086
  68     -0.000121027431
  69     -0.000059848881
  70     -0.000058113964
  71     -0.000141448384
  72      0.000011908047
  73      0.000007213005
  74     -0.000062949739
 Ene=  -0.27292577194031E+02
 Spin= Alpha
 Occup=    0.688861
   1      0.000011876265
   2      0.000004524713
   3     -0.000011777895
   4     -0.000013877627
   5     -0.000019333909
   6     -0.000002800003
   7     -0.000008782216
   8      0.000078600159
   9     -0.000054592038
  10      0.338345504102
  11      0.103960240122
  12      0.338041918088
  13      0.002486177159
  14      0.000798713430
  15      0.002881246466
  16      0.005530324920
  17      0.001729358223
  18      0.005410147653
  19     -0.001690583369
  20     -0.000589899194
  21     -0.001716980780
  22     -0.000042791027
  23      0.000002629448
  24      0.000022820163
  25     -0.000021121951
  26      0.000046507463
  27      0.000104963190
  28     -0.000046804195
  29      0.000032373950
  30      0.000054397679
  31     -0.000023291291
  32      0.000418077095
  33      0.000038850044
  34      0.000301298573
  35      0.000003620595
  36      0.000020860089
  37      0.000005208056
  38     -0.000020079736
  39      0.000004614613
  40      0.000014761349
  41      0.000001691218
  42     -0.000003229806
  43      0.000089336881
  44     -0.000211668876
  45      0.000003935863
  46      0.000002328370
  47      0.000013769743
  48      0.000009970194
  49     -0.000102768919
  50     -0.000172933601
  51     -0.000054624827
  52      0.000045502106
  53     -0.000029907932
  54      0.000011967746
  55      0.000013988803
  56     -0.000000121420
  57     -0.000022687036
  58      0.000103071830
  59      0.000007547144
  60     -0.000009263389
  61      0.000005399537
  62     -0.000022136881
  63     -0.000083115099
  64      0.000006600590
  65     -0.000008049569
  66      0.000006643160
  67     -0.000040294274
  68     -0.000021135616
  69     -0.000033544654
  70      0.000045310657
  71      0.000048352231
  72     -0.000017590677
  73      0.000007414714
  74      0.000045973785
 Ene=  -0.27268723010627E+02
 Spin= Alpha
 Occup=    0.283642
   1     -0.000008106804
   2     -0.000003041850
   3      0.000035431847
   4      0.000021706659
   5     -0.000028348039
   6     -0.000014021089
   7      0.000006772699
   8      0.000061836841
   9     -0.000035727582
  10     -0.348597897172
  11     -0.017081715564
  12      0.005421688542
  13     -0.002951418379
  14     -0.000130788482
  15      0.000117144714
  16     -0.005523417624
  17     -0.000274326078
  18      0.000071830396
  19      0.001683690948
  20      0.000082383844
  21     -0.000045473996
  22     -0.000006074327
  23      0.000012768135
  24     -0.000002404300
  25      0.000001459098
  26     -0.000043958204
  27      0.000029368149
  28     -0.000010313230
  29      0.000010330559
  30     -0.000001743621
  31      0.000013452743
  32     -0.000375366269
  33     -0.000028008619
  34     -0.000022206887
  35     -0.000010162499
  36     -0.000015571103
  37     -0.000007021798
  38      0.000000898798
  39     -0.000003498175
  40     -0.000007513843
  41     -0.000001636724
  42     -0.000001391104
  43      0.000033323429
  44     -0.000082816392
  45     -0.000006711750
  46      0.000000435560
  47      0.000002535518
  48      0.000043941181
  49     -0.000038325697
  50     -0.000044340316
  51     -0.000022642681
  52      0.000005174646
  53     -0.000012103748
  54      0.000009284741
  55      0.000000070057
  56      0.000000199840
  57      0.000000586866
  58     -0.000000878684
  59     -0.000005733217
  60     -0.000000193797
  61     -0.000001125852
  62      0.000017124306
  63      0.000005271923
  64      0.000005618655
  65      0.000000517190
  66     -0.000004546442
  67     -0.000000380936
  68      0.000000476576
  69      0.000031986638
  70      0.000018880891
  71      0.000029384217
  72     -0.000002224874
  73      0.000001441190
  74      0.000020864740
 Ene=  -0.27235614522898E+02
 Spin= Alpha
 Occup=    0.002180
   1      0.000011022354
   2      0.000004164361
   3     -0.000036649545
   4     -0.000022880643
   5      0.000019866804
   6      0.000013297297
   7     -0.000009391206
   8     -0.000037121662
   9      0.000016856872
  10      0.003179088343
  11      0.025094954606
  12     -0.017203493220
  13      0.000034728686
  14      0.000229898119
  15     -0.000185288693
  16      0.000046592442
  17      0.000397591054
  18     -0.000255380467
  19     -0.000013981760
  20     -0.000135391412
  21      0.000079937285
  22     -0.000002585039
  23     -0.000000213540
  24     -0.000003908879
  25     -0.000005528009
  26      0.000000338788
  27      0.000007335099
  28      0.000000612571
  29      0.000005510236
  30      0.000015861303
  31      0.000000534454
  32      0.000003442772
  33      0.000008481465
  34     -0.000013898276
  35     -0.000001869391
  36      0.000000363953
  37      0.000005011715
  38     -0.000001947369
  39     -0.000002687702
  40      0.000000101859
  41      0.000002493487
  42      0.000000289664
  43     -0.000003647826
  44      0.000011289794
  45      0.000000110876
  46     -0.000000085164
  47     -0.000000437710
  48     -0.000000424988
  49      0.000005573273
  50      0.000001076514
  51      0.000000260577
  52     -0.000000629304
  53      0.000000723512
  54     -0.000001500386
  55     -0.000000320962
  56     -0.000000304944
  57     -0.000007909584
  58      0.000034748031
  59      0.000000064053
  60     -0.000003392970
  61      0.000000529183
  62      0.000000885729
  63     -0.000030485950
  64      0.000003776387
  65     -0.000006042179
  66      0.000000073417
  67     -0.000001916991
  68     -0.000010653705
  69     -0.000000831059
  70     -0.000003102573
  71     -0.000009224933
  72      0.000000916648
  73      0.000000776063
  74     -0.000003253960
 Ene=  -0.20314403529562E+02
 Spin= Alpha
 Occup=    1.000000
   1     -0.000000197581
   2     -0.000000233985
   3      0.000018638742
   4      0.000045599534
   5     -0.000044250526
   6     -0.000083320534
   7      0.000084120781
   8      0.001007716149
   9     -0.000119357696
  10      0.000000112929
  11      0.000004593716
  12     -0.000001226832
  13      0.000000588668
  14     -0.000026929180
  15      0.000005693990
  16      0.000000533165
  17      0.000040481517
  18     -0.000011474595
  19     -0.000007742063
  20      0.000083581903
  21      0.000010164357
  22     -0.000015171455
  23      0.000009673227
  24      0.000002223146
  25      0.000008229410
  26      0.000000998421
  27     -0.000015633588
  28     -0.000042964383
  29     -0.000050308593
  30     -0.000187366307
  31     -0.000010609248
  32      0.000034349208
  33      0.000710211173
  34     -0.000294430621
  35     -0.000007151854
  36      0.000003553754
  37      0.000006534156
  38     -0.000003684709
  39      0.000000820600
  40     -0.000000820576
  41      0.000011556036
  42      0.000070099911
  43      0.000082562896
  44     -0.000342424847
  45     -0.000001306997
  46     -0.000006538852
  47      0.000005100345
  48      0.000020814806
  49     -0.000109829471
  50     -0.000055169600
  51      0.000002740113
  52      0.000001008685
  53     -0.000000254580
  54      0.000007100435
  55      0.000000442715
  56      0.091251178142
  57      0.004058137276
  58     -0.002540852673
  59      0.000007302798
  60     -0.000188511029
  61      0.000013069843
  62     -0.000025813426
  63      0.000636239489
  64     -0.000049932536
  65      0.000046904281
  66     -0.000002301244
  67      0.000007013439
  68      0.000069451409
  69      0.000007680375
  70      0.000039040681
  71      0.000023213772
  72     -0.000005762283
  73     -0.000024606004
  74      0.000017502370
 Ene=  -0.20306462847339E+02
 Spin= Alpha
 Occup=    0.000000
   1      0.000000003148
   2      0.000000001488
   3     -0.000000059785
   4     -0.000000111120
   5      0.000000120226
   6      0.000000129464
   7     -0.000000001258
   8     -0.000001678332
   9      0.000000287603
  10      0.000000055725
  11      0.000000009702
  12     -0.000000003146
  13      0.000000085662
  14     -0.000000017093
  15      0.000000027824
  16     -0.000000060798
  17      0.000000023671
  18     -0.000000079623
  19     -0.000000031022
  20      0.000000017173
  21      0.000000204796
  22      0.000000025510
  23      0.000000018352
  24     -0.000000020882
  25     -0.000000030419
  26     -0.000000003838
  27     -0.000000386478
  28      0.000000205290
  29     -0.000000096762
  30      0.000000110501
  31      0.000000049299
  32     -0.000000315816
  33      0.000000121279
  34      0.000001252830
  35      0.000000067875
  36      0.000000040055
  37      0.000000033617
  38     -0.000000029618
  39      0.000000014362
  40      0.000000004104
  41     -0.000000000261
  42     -0.000233183134
  43     -0.000009914940
  44      0.000005316942
  45      0.000000219792
  46     -0.000000606076
  47      0.000000052142
  48     -0.000000395778
  49      0.000000436350
  50      0.000001041564
  51      0.000000192396
  52      0.000000838808
  53      0.000000289026
  54      0.000000258322
  55     -0.000000030826
  56      0.000003672747
  57      0.000000016398
  58      0.000000443211
  59     -0.000000000186
  60     -0.000000009844
  61      0.000000020140
  62      0.000000047109
  63     -0.000000118106
  64     -0.000000184319
  65     -0.000000007812
  66     -0.000000005128
  67      0.000000017374
  68      0.000000002906
  69     -0.000000011402
  70      0.000000429491
  71     -0.000000539171
  72     -0.000000097144
  73     -0.000000752928
  74      0.000000317051
 Ene=  -0.20270261692995E+02
 Spin= Alpha
 Occup=    1.000000
   1     -0.000001616758
   2     -0.000002424488
   3      0.000181064234
   4      0.000378986010
   5     -0.000411499413
   6     -0.000411188374
   7     -0.000019988943
   8      0.005453188105
   9     -0.000936724279
  10     -0.000000592738
  11     -0.000005018145
  12      0.000002142502
  13      0.000008414276
  14      0.000032477174
  15     -0.000031652069
  16     -0.000067692803
  17     -0.000039851509
  18      0.000244510794
  19      0.000190034367
  20     -0.000070283065
  21     -0.000669306679
  22     -0.000061061544
  23      0.000046337755
  24      0.000051164345
  25      0.000068400926
  26     -0.000003802846
  27      0.001257113707
  28     -0.000747129004
  29      0.000332729293
  30     -0.000335808125
  31     -0.000145143826
  32      0.001077639750
  33     -0.000309555213
  34     -0.003997177577
  35     -0.000065434180
  36      0.000067924266
  37     -0.000069405025
  38      0.000017157074
  39      0.000028172268
  40     -0.000005726651
  41     -0.000023314887
  42      0.728016183887
  43      0.031028383475
  44     -0.016796059471
  45     -0.000057930840
  46      0.001846871741
  47      0.000044005981
  48      0.000976608415
  49     -0.001470795003
  50     -0.003362891115
  51     -0.000189407625
  52     -0.000066434733
  53     -0.000924720079
  54     -0.000632942066
  55      0.000225566625
  56     -0.000658649042
  57      0.000435495002
  58     -0.001680332881
  59      0.000016655365
  60      0.000000840118
  61     -0.000056919527
  62     -0.000184551672
  63      0.000431278601
  64      0.000578232911
  65      0.000017008985
  66     -0.000002521464
  67     -0.000084085803
  68     -0.000002909056
  69      0.000022072514
  70     -0.001206962144
  71      0.001706151635
  72      0.000211452510
  73      0.002261339203
  74     -0.000962861302
 Ene=  -0.20266213789004E+02
 Spin= Alpha
 Occup=    0.000000
   1     -0.000000000955
   2     -0.000000000449
   3      0.000000008705
   4      0.000000017683
   5     -0.000000015172
   6     -0.000000032229
   7      0.000000032874
   8      0.000000344814
   9     -0.000000038360
  10     -0.000000166116
  11      0.000000080785
  12     -0.000000006152
  13     -0.000000052719
  14     -0.000000026467
  15     -0.000000002890
  16      0.000000028818
  17      0.000000010197
  18     -0.000000007812
  19     -0.000000018518
  20      0.000000033155
  21      0.000000009019
  22      0.000000012144
  23      0.000000048127
  24      0.000000001159
  25     -0.000000000973
  26     -0.000000000724
  27     -0.000000028325
  28     -0.000000020575
  29     -0.000000027450
  30     -0.000000069367
  31      0.000000004357
  32      0.000000005341
  33      0.000000289969
  34     -0.000000072840
  35      0.000000001502
  36     -0.000000012739
  37      0.000000000367
  38      0.000000000849
  39      0.000000023051
  40     -0.000000007512
  41      0.000000023718
  42     -0.000006816164
  43     -0.000000261603
  44      0.000000030887
  45     -0.000000003107
  46     -0.000000020221
  47      0.000000000380
  48      0.000000000289
  49     -0.000000029061
  50      0.000000017038
  51      0.000000000600
  52     -0.000000006027
  53      0.000000008655
  54      0.000000010827
  55     -0.000000010374
  56      0.000036561852
  57      0.000001618096
  58     -0.000000992681
  59      0.000000026930
  60     -0.000000068514
  61     -0.000000003276
  62     -0.000000018067
  63      0.000000248033
  64     -0.000000022605
  65      0.000000002024
  66     -0.000001066606
  67     -0.000000045777
  68      0.000000065011
  69     -0.000000036843
  70      0.000000027539
  71     -0.000000004337
  72     -0.000000005616
  73     -0.000000029668
  74      0.000000017761
 Ene=  -0.48027112140293E+01
 Spin= Alpha
 Occup=    1.000000
   1     -0.014375571061
   2     -0.005991835625
   3      0.041569608188