[Molden Format]
[Title]
generated by TRESC, imaginary part1 of MOs of job HO-Fe-O
 
[Atoms] AU
Fe   1  26   -0.5869356640    1.5846694120   -1.3253328659
 O   2   8    0.3176516003    0.6923332413   -4.5058909931
 O   3   8   -0.6562149084    4.6189079455   -1.7711910362
 H   4   1    0.5496400319    2.2319326884   -5.4721778109
[GTO]
  1 0
 s  6 1.0
    60923.6406430000        0.0045980778
     9147.8893982000        0.0193220084
     2081.3505927000        0.0775531983
      587.5597706700        0.2480208186
      191.0904399000        0.4675986791
       65.7327301100        0.3373548125
 s  1 1.0
      127.2589192800        1.0000000000
 s  1 1.0
       14.8309130100        1.0000000000
 s  1 1.0
        6.0653307400        1.0000000000
 s  1 1.0
       10.4499437100        1.0000000000
 s  1 1.0
        1.7245228000        1.0000000000
 s  1 1.0
        0.7177217700        1.0000000000
 s  1 1.0
        0.0914498300        1.0000000000
 s  1 1.0
        0.0337066900        1.0000000000
 p  5 1.0
      773.4375099500        0.0106099056
      182.1514971400        0.0713199466
       57.5472727600        0.2648513978
       20.6149889400        0.5090783315
        7.6348557900        0.3293226861
 p  1 1.0
        3.8719328000        1.0000000000
 p  1 1.0
        1.4924724100        1.0000000000
 p  1 1.0
        0.5606128500        1.0000000000
 d  4 1.0
       38.9681334200        0.0334987321
       10.8000670800        0.1771399682
        3.6136458000        0.4404450273
        1.2129967900        0.5720563253
 d  1 1.0
        0.3652439300        1.0000000000
 p  1 1.0
        0.1349150000        1.0000000000
 f  1 1.0
        1.5980000000        1.0000000000
 
  2 0
 s  5 1.0
     2266.1767785000        0.0060711540
      340.8701019100        0.0417308970
       77.3631351700        0.1850777598
       21.4796449400        0.4668774046
        6.6589433100        0.4435718061
 s  1 1.0
        0.8097597600        1.0000000000
 s  1 1.0
        0.2553077200        1.0000000000
 p  3 1.0
       17.7215043200        0.0628680198
        3.8635505400        0.3334973703
        1.0480920900        0.7412421661
 p  1 1.0
        0.2764154400        1.0000000000
 d  1 1.0
        1.2000000000        1.0000000000
 
  3 0
 s  5 1.0
     2266.1767785000        0.0060711540
      340.8701019100        0.0417308970
       77.3631351700        0.1850777598
       21.4796449400        0.4668774046
        6.6589433100        0.4435718061
 s  1 1.0
        0.8097597600        1.0000000000
 s  1 1.0
        0.2553077200        1.0000000000
 p  3 1.0
       17.7215043200        0.0628680198
        3.8635505400        0.3334973703
        1.0480920900        0.7412421661
 p  1 1.0
        0.2764154400        1.0000000000
 d  1 1.0
        1.2000000000        1.0000000000
 
  4 0
 s  3 1.0
       13.0107010000        0.0391282527
        1.9622572000        0.2855840539
        0.4445379600        0.7689908602
 s  1 1.0
        0.1219496200        1.0000000000
 p  1 1.0
        0.8000000000        1.0000000000
 
[5D]
[7F]
[9G]
[MO]
 Ene=  -0.26129561228042E+03
 Spin= Alpha
 Occup=    0.999916
   1     -0.916215248282
   2     -0.035548093595
   3     -0.032180657024
   4      0.001560048477
   5      0.013091487810
   6     -0.001199193598
   7      0.000564741892
   8     -0.000078851032
   9      0.000040532513
  10      0.000001067906
  11      0.000000188962
  12     -0.000004479772
  13     -0.000000424085
  14      0.000006717191
  15      0.000000245770
  16     -0.000000582582
  17     -0.000019415790
  18      0.000006490424
  19      0.000001454790
  20      0.000028284825
  21     -0.000011873122
  22      0.000000342468
  23     -0.000000162372
  24      0.000000341285
  25      0.000000690293
  26     -0.000000027719
  27     -0.000007945896
  28     -0.000000318186
  29     -0.000004313110
  30     -0.000016034420
  31     -0.000000851485
  32     -0.000001285024
  33      0.000018749581
  34      0.000000402268
  35      0.000000335184
  36      0.000000224890
  37     -0.000001551726
  38      0.000000726343
  39      0.000000065772
  40      0.000000141162
  41     -0.000002080247
  42     -0.000000777498
  43      0.000007417267
  44     -0.000003447667
  45     -0.000001402878
  46      0.000000635927
  47      0.000005008223
  48      0.000002769434
  49     -0.000006511960
  50     -0.000009198682
  51     -0.000003344497
  52      0.000002389457
  53     -0.000002577168
  54      0.000001883437
  55      0.000000833867
  56     -0.000000979626
  57      0.000020693111
  58     -0.000047118427
  59     -0.000000009945
  60     -0.000002647838
  61      0.000000670062
  62     -0.000000608657
  63      0.000041856133
  64     -0.000007468784
  65      0.000009861411
  66     -0.000000152528
  67      0.000005352367
  68      0.000017749490
  69      0.000000774905
  70      0.000004090973
  71     -0.000000428249
  72     -0.000001941814
  73      0.000002007303
  74      0.000006714847
 Ene=  -0.26129550242681E+03
 Spin= Alpha
 Occup=    0.000084
   1      0.008406765052
   2      0.000326172655
   3      0.000295283899
   4     -0.000014310437
   5     -0.000120130475
   6      0.000011002544
   7     -0.000005181931
   8      0.000000722625
   9     -0.000000371642
  10     -0.000000010241
  11     -0.000000022608
  12      0.000000014326
  13      0.000000004405
  14     -0.000000058882
  15     -0.000000000032
  16      0.000000004913
  17      0.000000181211
  18     -0.000000055023
  19     -0.000000013245
  20     -0.000000261099
  21      0.000000107006
  22     -0.000000004369
  23      0.000000001700
  24     -0.000000015141
  25     -0.000000006759
  26     -0.000000000303
  27      0.000000073906
  28      0.000000002688
  29      0.000000044642
  30      0.000000147936
  31      0.000000007944
  32      0.000000012016
  33     -0.000000174203
  34     -0.000000003638
  35      0.000000002316
  36     -0.000000004029
  37      0.000000013293
  38     -0.000000003333
  39      0.000000000929
  40     -0.000000002771
  41      0.000000020890
  42      0.000000008232
  43     -0.000000066740
  44      0.000000030973
  45      0.000000012832
  46     -0.000000005446
  47     -0.000000046125
  48     -0.000000024932
  49      0.000000060201
  50      0.000000083390
  51      0.000000030491
  52     -0.000000021702
  53      0.000000020344
  54     -0.000000016936
  55     -0.000000006858
  56      0.000000009147
  57     -0.000000190016
  58      0.000000434681
  59      0.000000000135
  60      0.000000024040
  61     -0.000000006051
  62      0.000000005490
  63     -0.000000385401
  64      0.000000066102
  65     -0.000000092231
  66      0.000000001398
  67     -0.000000046152
  68     -0.000000163809
  69     -0.000000007050
  70     -0.000000038517
  71      0.000000003534
  72      0.000000017896
  73     -0.000000017272
  74     -0.000000062208
 Ene=  -0.32009778697468E+02
 Spin= Alpha
 Occup=    1.000000
   1     -0.323263639788
   2     -0.117782784575
   3      0.703393304258
   4      0.457957528296
   5     -0.053468930462
   6      0.017492769290
   7     -0.002280855931
   8      0.000166921568
   9     -0.000106753052
  10      0.000003420719
  11      0.000974510434
  12     -0.000167572969
  13      0.000004577189
  14      0.000200872817
  15     -0.000067061865
  16      0.000004672127
  17     -0.000048897638
  18     -0.000003009746
  19     -0.000008693780
  20     -0.000009604001
  21      0.000031185078
  22      0.000413779802
  23     -0.000121894286
  24      0.000109783404
  25      0.000067284361
  26     -0.000014668362
  27     -0.000204580118
  28      0.000077546797
  29     -0.000060057790
  30     -0.000013493184
  31      0.000012872201
  32     -0.000034211854
  33      0.000032334793
  34      0.000128630808
  35      0.000003889672
  36     -0.000001177103
  37      0.000001708449
  38      0.000003356824
  39     -0.000000261535
  40     -0.000001306191
  41      0.000003095281
  42      0.000004038481
  43     -0.000070363335
  44      0.000211154021
  45      0.000003043016
  46      0.000002618777
  47     -0.000007943898
  48     -0.000043942426
  49      0.000056505182
  50      0.000133075518
  51      0.000031235083
  52     -0.000021472820
  53      0.000020722534
  54     -0.000007943755
  55     -0.000007154141
  56      0.000003481653
  57     -0.000048050120
  58      0.000025017910
  59     -0.000000707329
  60      0.000017890978
  61     -0.000001019410
  62      0.000005728740
  63     -0.000052380828
  64     -0.000011741090
  65     -0.000015449149
  66     -0.000001355066
  67     -0.000005830951
  68     -0.000035322773
  69     -0.000002643194
  70     -0.000032748011
  71      0.000021362510
  72      0.000007974314
  73     -0.000007963738
  74     -0.000023914287
 Ene=  -0.31934233422992E+02
 Spin= Alpha
 Occup=    0.000000
   1     -0.000002880685
   2     -0.000001049576
   3      0.000006265546
   4      0.000004052784
   5     -0.000000455330
   6      0.000000200533
   7     -0.000000032054
   8     -0.000000193237
   9      0.000000114266
  10      0.000000016981
  11     -0.000004316740
  12     -0.000037231790
  13     -0.000000015880
  14      0.000000752583
  15      0.000005625427
  16      0.000000034894
  17     -0.000000518919
  18     -0.000003870067
  19     -0.000000041626
  20      0.000000249857
  21      0.000001731995
  22      0.000000122922
  23     -0.000000030103
  24      0.000000479060
  25      0.000000040880
  26      0.000000055624
  27     -0.000000175682
  28      0.000000072225
  29     -0.000000138808
  30     -0.000000057641
  31     -0.000000009929
  32     -0.000000041426
  33      0.000000060541
  34     -0.000000268821
  35      0.000000035122
  36     -0.000000017027
  37     -0.000000004711
  38      0.000000018971
  39      0.000000006573
  40     -0.000000008091
  41      0.000000007670
  42      0.000000020747
  43     -0.000000135443
  44      0.000000361252
  45      0.000000004986
  46      0.000000001674
  47     -0.000000022832
  48     -0.000000069666
  49      0.000000134529
  50      0.000000263471
  51      0.000000083837
  52     -0.000000055111
  53      0.000000025835
  54     -0.000000019825
  55     -0.000000010717
  56      0.000000008206
  57      0.000000017152
  58     -0.000000107009
  59     -0.000000002622
  60      0.000000009522
  61     -0.000000002559
  62      0.000000012739
  63      0.000000054664
  64     -0.000000007745
  65     -0.000000007003
  66     -0.000000001183
  67      0.000000040845
  68      0.000000002281
  69     -0.000000003369
  70     -0.000000065178
  71     -0.000000087804
  72      0.000000024398
  73     -0.000000006462
  74     -0.000000081348
 Ene=  -0.27750017896061E+02
 Spin= Alpha
 Occup=    0.715743
   1      0.000240675557
   2      0.000092944235
   3     -0.000899288639
   4     -0.000784275535
   5      0.000709027098
   6      0.000526015933
   7     -0.000413865045
   8     -0.001283843153
   9      0.000526481808
  10     -0.012541199699
  11      0.595416029954
  12      0.038533774558
  13      0.000136096765
  14     -0.007027854808
  15     -0.000262039192
  16     -0.000367082837
  17      0.016332178108
  18      0.000946860898
  19      0.000180062405
  20     -0.006696632953
  21     -0.000333600868
  22     -0.000144108160
  23      0.000023651591
  24     -0.000075087838
  25     -0.000177412978
  26      0.000002171299
  27      0.000584086186
  28     -0.000094517543
  29      0.000310379197
  30      0.000758545748
  31      0.000008585158
  32      0.000055099515
  33      0.000399975827
  34     -0.000008784299
  35     -0.000063163609
  36      0.000012500479
  37      0.000118167486
  38     -0.000059788116
  39     -0.000021646467
  40      0.000002202700
  41      0.000088492826
  42     -0.000002194023
  43      0.000117940975
  44     -0.000153190389
  45     -0.000005462322
  46      0.000005686019
  47      0.000021745702
  48      0.000116468956
  49     -0.000073715916
  50     -0.000433599027
  51     -0.000161031786
  52      0.000081515497
  53     -0.000064695433
  54     -0.000015534531
  55      0.000017373871
  56     -0.000012614070
  57     -0.000415510438
  58      0.001721546810
  59      0.000001702280
  60     -0.000139404165
  61      0.000030941740
  62      0.000037148200
  63     -0.001499401931
  64      0.000194035938
  65     -0.000282658469
  66      0.000004194690
  67     -0.000173828421
  68     -0.000516703260
  69     -0.000023814534
  70      0.000006872729
  71     -0.000226528772
  72     -0.000002850827
  73      0.000055844074
  74      0.000008967755
 Ene=  -0.27734747218794E+02
 Spin= Alpha
 Occup=    0.411580
   1      0.000019568216
   2      0.000007709292
   3     -0.000108792484
   4     -0.000097615345
   5      0.000120778178
   6      0.000074198415
   7     -0.000038836769
   8     -0.000301242597
   9      0.000165644069
  10     -0.035128643522
  11     -0.001132111447
  12     -0.225510152990
  13      0.000401798398
  14     -0.000033976809
  15      0.002132429968
  16     -0.000896900244
  17     -0.000007166279
  18     -0.005796636515
  19      0.000293402604
  20     -0.000005326161
  21      0.002194198852
  22      0.000028674128
  23     -0.000011785161
  24     -0.000015130360
  25      0.000000488007
  26     -0.000007340020
  27     -0.000105108892
  28      0.000061803074
  29     -0.000031553879
  30      0.000009242102
  31      0.000014957600
  32     -0.000109640635
  33      0.000020846598
  34     -0.000372745812
  35      0.000001328310
  36     -0.000007798938
  37      0.000013313375
  38      0.000007705372
  39     -0.000005289218
  40     -0.000004360310
  41      0.000005969248
  42      0.000005815222
  43     -0.000146790249
  44      0.000356879462
  45      0.000003872704
  46     -0.000005123831
  47     -0.000024048894
  48     -0.000052715100
  49      0.000169661115
  50      0.000238356893
  51      0.000080987430
  52     -0.000056853926
  53      0.000045533670
  54     -0.000027932621
  55     -0.000016231464
  56     -0.000001104368
  57     -0.000010357601
  58      0.000036250541
  59     -0.000002824767
  60     -0.000003053286
  61     -0.000003444535
  62      0.000013257057
  63     -0.000044864037
  64      0.000007280297
  65     -0.000017550386
  66     -0.000002925247
  67      0.000034767748
  68     -0.000023484662
  69      0.000004168659
  70     -0.000079121229
  71     -0.000120535896
  72      0.000025862491
  73     -0.000006455306
  74     -0.000085247667
 Ene=  -0.27298175977068E+02
 Spin= Alpha
 Occup=    0.897995
   1      0.000174426468
   2      0.000066390298
   3     -0.000523482729
   4     -0.000361998100
   5      0.000240678864
   6      0.000196402061
   7     -0.000167679985
   8     -0.000358439223
   9      0.000107626806
  10     -0.281759708085
  11      0.539507900925
  12      0.343852570476
  13     -0.002132721614
  14      0.003725927990
  15      0.003064290002
  16     -0.004633713430
  17      0.009237298455
  18      0.005483335981
  19      0.001487125296
  20     -0.003277730969
  21     -0.001774539281
  22     -0.000136778613
  23      0.000036946512
  24     -0.000029579703
  25     -0.000125850307
  26     -0.000028545102
  27      0.000403993128
  28     -0.000101989325
  29      0.000184753261
  30      0.000378125074
  31      0.000003675059
  32     -0.000255117589
  33      0.000147150615
  34      0.000225781117
  35     -0.000053946037
  36     -0.000000380220
  37      0.000073122207
  38     -0.000055510103
  39     -0.000020751008
  40      0.000004229025
  41      0.000041062063
  42     -0.000006089770
  43      0.000188738775
  44     -0.000409678708
  45     -0.000009754567
  46      0.000004063804
  47      0.000024072604
  48      0.000135644841
  49     -0.000192431987
  50     -0.000418016486
  51     -0.000157683650
  52      0.000085343612
  53     -0.000075033003
  54      0.000020569809
  55      0.000020112116
  56     -0.000005661414
  57     -0.000185371729
  58      0.000815819964
  59     -0.000002490261
  60     -0.000076818976
  61      0.000015914034
  62      0.000026006820
  63     -0.000691537376
  64      0.000097560208
  65     -0.000123509712
  66     -0.000000119238
  67     -0.000108831506
  68     -0.000232203761
  69      0.000015800006
  70      0.000078476591
  71      0.000001792644
  72     -0.000021187099
  73      0.000031790918
  74      0.000082537761
 Ene=  -0.27292577194031E+02
 Spin= Alpha
 Occup=    0.688861
   1      0.000166626201
   2      0.000063296373
   3     -0.000597782425
   4     -0.000390810948
   5      0.000378586788
   6      0.000245429653
   7     -0.000163333429
   8     -0.000760716686
   9      0.000365902693
  10     -0.116679892128
  11      0.314134655466
  12     -0.570534713165
  13     -0.000772329110
  14      0.002075672318
  15     -0.004844417039
  16     -0.001933203375
  17      0.005411463285
  18     -0.009161858694
  19      0.000574371860
  20     -0.001929904600
  21      0.002955200118
  22     -0.000002842402
  23     -0.000009395692
  24     -0.000082094363
  25     -0.000072885684
  26     -0.000018167967
  27      0.000025788492
  28      0.000055862395
  29      0.000063016524
  30      0.000234199971
  31      0.000025098491
  32     -0.000157493723
  33      0.000131628884
  34     -0.000506620537
  35     -0.000032009668
  36     -0.000007206065
  37      0.000080744896
  38     -0.000003962396
  39     -0.000022927936
  40     -0.000010218218
  41      0.000041052655
  42      0.000006892163
  43     -0.000158477157
  44      0.000424409149
  45      0.000001330109
  46     -0.000003738179
  47     -0.000021387149
  48     -0.000034164973
  49      0.000206253067
  50      0.000190044212
  51      0.000062071732
  52     -0.000053791033
  53      0.000044084345
  54     -0.000041112519
  55     -0.000017715936
  56     -0.000005539352
  57     -0.000124053000
  58      0.000533340764
  59     -0.000003088897
  60     -0.000050842999
  61      0.000004964089
  62      0.000028594521
  63     -0.000477903273
  64      0.000060639413
  65     -0.000101991816
  66     -0.000003174050
  67      0.000000903638
  68     -0.000174291914
  69      0.000001673794
  70     -0.000103515688
  71     -0.000221099102
  72      0.000033084378
  73      0.000006975836
  74     -0.000107919938
 Ene=  -0.27268723010627E+02
 Spin= Alpha
 Occup=    0.283642
   1      0.000151042771
   2      0.000057322284
   3     -0.000486644283
   4     -0.000319971063
   5      0.000254748021
   6      0.000183422549
   7     -0.000138473716
   8     -0.000451000599
   9      0.000188154874
  10     -0.006855333058
  11      0.395901132282
  12     -0.015271856946
  13     -0.000059005963
  14      0.003139205428
  15     -0.000060249408
  16     -0.000119101514
  17      0.006547291829
  18     -0.000274262327
  19      0.000049614280
  20     -0.002274875938
  21      0.000099744746
  22     -0.000067356792
  23      0.000009115975
  24     -0.000040835510
  25     -0.000088949012
  26      0.000001528263
  27      0.000192608227
  28     -0.000027219065
  29      0.000106141126
  30      0.000262756896
  31      0.000003365632
  32      0.000017963350
  33      0.000128092674
  34     -0.000040630267
  35     -0.000032699603
  36      0.000005382209
  37      0.000067017958
  38     -0.000030026171
  39     -0.000016598131
  40      0.000002924334
  41      0.000035150668
  42     -0.000000195492
  43      0.000024652043
  44     -0.000023071014
  45     -0.000000840207
  46      0.000000270652
  47      0.000003322038
  48      0.000032913498
  49     -0.000008769461
  50     -0.000121296488
  51     -0.000045928169
  52      0.000021934308
  53     -0.000016405324
  54     -0.000007863819
  55      0.000004080301
  56     -0.000005190421
  57     -0.000130417730
  58      0.000571177263
  59      0.000000952378
  60     -0.000054421178
  61      0.000009891527
  62      0.000012904057
  63     -0.000494114271
  64      0.000064338845
  65     -0.000093306094
  66      0.000001294049
  67     -0.000052742197
  68     -0.000169308842
  69     -0.000008201360
  70     -0.000004275400
  71     -0.000084907149
  72      0.000001360747
  73      0.000016979046
  74     -0.000004847387
 Ene=  -0.27235614522898E+02
 Spin= Alpha
 Occup=    0.002180
   1      0.000001489382
   2      0.000000544597
   3     -0.000007843358
   4     -0.000004110796
   5      0.000007014388
   6      0.000003195647
   7     -0.000001227537
   8     -0.000016491036
   9      0.000009591212
  10      0.021163109488
  11     -0.002731164486
  12     -0.027343808277
  13      0.000213994962
  14     -0.000031949575
  15     -0.000307524927
  16      0.000318784092
  17     -0.000040737185
  18     -0.000400844789
  19     -0.000096543309
  20      0.000013899772
  21      0.000124981160
  22      0.000003472165
  23     -0.000001784830
  24     -0.000001815171
  25      0.000000643370
  26      0.000002441778
  27     -0.000009612417
  28      0.000004337098
  29     -0.000002631415
  30     -0.000001601971
  31     -0.000000106805
  32      0.000018867390
  33      0.000001737258
  34     -0.000018008425
  35      0.000001041712
  36      0.000000539295
  37      0.000001198737
  38     -0.000000478748
  39      0.000000559415
  40     -0.000000053913
  41      0.000000267709
  42      0.000000571181
  43     -0.000010049565
  44      0.000024768119
  45      0.000000547828
  46     -0.000000160239
  47     -0.000001149652
  48     -0.000005993454
  49      0.000011820343
  50      0.000016517068
  51      0.000006234830
  52     -0.000003636639
  53      0.000003443999
  54     -0.000002059236
  55     -0.000000940448
  56      0.000000141597
  57      0.000000557001
  58     -0.000002768333
  59      0.000000226798
  60      0.000000261581
  61     -0.000000116354
  62     -0.000000541047
  63      0.000001418693
  64     -0.000000772250
  65     -0.000000196638
  66      0.000000124335
  67      0.000002396396
  68      0.000000146507
  69     -0.000001832635
  70     -0.000005521716
  71     -0.000007591484
  72      0.000001490757
  73     -0.000000546500
  74     -0.000005776760
 Ene=  -0.20314403529562E+02
 Spin= Alpha
 Occup=    1.000000
   1     -0.000002104652
   2     -0.000002515891
   3      0.000200897473
   4      0.000491667785
   5     -0.000477106535
   6     -0.000898244331
   7      0.000906707364
   8      0.010863998575
   9     -0.001286776822
  10     -0.000000196891
  11      0.000049996711
  12     -0.000011326302
  13      0.000001858570
  14     -0.000290317802
  15      0.000061075025
  16      0.000005520910
  17      0.000436175345
  18     -0.000123751177
  19     -0.000084446857
  20      0.000901082697
  21      0.000109614967
  22     -0.000163488249
  23      0.000105720406
  24      0.000024079054
  25      0.000088608251
  26      0.000006696065
  27     -0.000168629851
  28     -0.000463144635
  29     -0.000542231575
  30     -0.002020019636
  31     -0.000115051122
  32      0.000371505762
  33      0.007656512207
  34     -0.003174218112
  35     -0.000077444766
  36      0.000037067252
  37      0.000070285537
  38     -0.000039910123
  39      0.000008173399
  40     -0.000012432822
  41      0.000124144634
  42      0.000782719392
  43      0.000891156669
  44     -0.003692141285
  45     -0.000013806233
  46     -0.000070246727
  47      0.000055222952
  48      0.000224427479
  49     -0.001183862203
  50     -0.000594766174
  51      0.000029606478
  52      0.000011089483
  53     -0.000002658638
  54      0.000076362916
  55      0.000004919658
  56      0.983740722613
  57      0.043749058689
  58     -0.027392046966
  59      0.000085951113
  60     -0.002031587942
  61      0.000140993823
  62     -0.000281366282
  63      0.006858886828
  64     -0.000538233610
  65      0.000505588446
  66     -0.000024453074
  67      0.000076231612
  68      0.000749527268
  69      0.000073822770
  70      0.000420764362
  71      0.000250457761
  72     -0.000062092419
  73     -0.000265143874
  74      0.000188731877
 Ene=  -0.20306462847339E+02
 Spin= Alpha
 Occup=    0.000000
   1      0.000000002878
   2      0.000000000149
   3      0.000000069853
   4      0.000000163407
   5     -0.000000180213
   6     -0.000000184241
   7      0.000000055108
   8      0.000002097344
   9     -0.000000336494
  10     -0.000000010877
  11      0.000000161357
  12     -0.000000016973
  13      0.000000007999
  14     -0.000000130891
  15     -0.000000067596
  16     -0.000000027817
  17      0.000000084780
  18      0.000000095729
  19      0.000000064536
  20     -0.000000026741
  21     -0.000000246930
  22     -0.000000036384
  23      0.000000021723
  24     -0.000000007704
  25      0.000000017796
  26      0.000000007906
  27      0.000000397322
  28     -0.000000261560
  29      0.000000121095
  30     -0.000000163517
  31     -0.000000060314
  32      0.000000360686
  33      0.000000147008
  34     -0.000001353883
  35      0.000000024362
  36      0.000000010832
  37     -0.000000031415
  38      0.000000044720
  39      0.000000034327
  40     -0.000000010642
  41     -0.000000004686
  42      0.000208785937
  43      0.000008933693
  44     -0.000005123182
  45     -0.000000028719
  46      0.000000284882
  47      0.000000354536
  48      0.000000318350
  49     -0.000000408579
  50     -0.000001271516
  51     -0.000000169656
  52      0.000000007700
  53     -0.000000484430
  54     -0.000000111996
  55      0.000000014138
  56      0.000036400761
  57      0.000001745714
  58     -0.000001485539
  59      0.000000008745
  60     -0.000000085112
  61     -0.000000010800
  62     -0.000000067390
  63      0.000000371818
  64      0.000000151901
  65      0.000000018254
  66     -0.000000000089
  67     -0.000000040222
  68      0.000000013936
  69      0.000000007157
  70     -0.000000304384
  71      0.000000436772
  72      0.000000048646
  73      0.000000617638
  74     -0.000000121182
 Ene=  -0.20270261692995E+02
 Spin= Alpha
 Occup=    1.000000
   1      0.000001484243
   2      0.000002226757
   3     -0.000166303070
   4     -0.000348096062
   5      0.000377955377
   6      0.000377670422
   7      0.000018391826
   8     -0.005008846970
   9      0.000860394707
  10      0.000000674743
  11      0.000004660102
  12     -0.000001921264
  13     -0.000007695288
  14     -0.000029856966
  15      0.000029064288
  16      0.000062206587
  17      0.000036657328
  18     -0.000224591507
  19     -0.000174510113
  20      0.000064573756
  21      0.000614759393
  22      0.000056072449
  23     -0.000042657442
  24     -0.000047064606
  25     -0.000062844629
  26      0.000003828303
  27     -0.001154705953
  28      0.000686224534
  29     -0.000305632276
  30      0.000308438804
  31      0.000133421736
  32     -0.000989827672
  33      0.000284360108
  34      0.003671510620
  35      0.000060100183
  36     -0.000062435813
  37      0.000063686412
  38     -0.000015718822
  39     -0.000025934935
  40      0.000005244538
  41      0.000021452188
  42     -0.668713456138
  43     -0.028500863496
  44      0.015427781177
  45      0.000054275116
  46     -0.001696477668
  47     -0.000039843422
  48     -0.000897081827
  49      0.001350982411
  50      0.003088788719
  51      0.000173968268
  52      0.000060920219
  53      0.000849528526
  54      0.000581423441
  55     -0.000206747079
  56      0.000608388472
  57     -0.000399864119
  58      0.001543325948
  59     -0.000015372110
  60     -0.000000760888
  61      0.000052287232
  62      0.000169493268
  63     -0.000396098597
  64     -0.000531123767
  65     -0.000015620677
  66      0.000002343525
  67      0.000077238003
  68      0.000002668551
  69     -0.000020244656
  70      0.001108690255
  71     -0.001567198413
  72     -0.000194498099
  73     -0.002077171823
  74      0.000884453284
 Ene=  -0.20266213789004E+02
 Spin= Alpha
 Occup=    0.000000
   1      0.000000013033
   2      0.000000004212
   3     -0.000000060959
   4     -0.000000051831
   5      0.000000059742
   6      0.000000081091
   7     -0.000000018234
   8     -0.000000841759
   9      0.000000148518
  10     -0.000000150379
  11      0.000000157233
  12      0.000000931878
  13      0.000000018506
  14      0.000000061459
  15      0.000000250554
  16      0.000000025858
  17     -0.000000050748
  18     -0.000000155814
  19     -0.000000039387
  20      0.000000073036
  21      0.000000205870
  22      0.000000002425
  23     -0.000000005694
  24     -0.000000038160
  25     -0.000000005617
  26      0.000000016655
  27     -0.000000242398
  28      0.000000133676
  29     -0.000000063658
  30      0.000000014245
  31      0.000000018855
  32     -0.000000194628
  33      0.000000142159
  34      0.000000628795
  35      0.000000081643
  36     -0.000000026634
  37      0.000000044515
  38      0.000000042720
  39     -0.000000005586
  40      0.000000017563
  41      0.000000007635
  42     -0.000132302090
  43     -0.000005615642
  44      0.000002988617
  45      0.000000011778
  46     -0.000000337048
  47     -0.000000012070
  48     -0.000000176829
  49      0.000000276885
  50      0.000000619434
  51      0.000000002651
  52      0.000000017518
  53      0.000000150605
  54      0.000000103587
  55     -0.000000043206
  56      0.000013523997
  57      0.000000519108
  58     -0.000000081338
  59     -0.000000004725
  60     -0.000000046419
  61     -0.000000448015
  62      0.000000027910
  63      0.000000037080
  64      0.000000083686
  65     -0.000000038770
  66     -0.000000002700
  67      0.000000737174
  68     -0.000000024530
  69     -0.000000036885
  70      0.000000208626
  71     -0.000000272329
  72     -0.000000042667
  73     -0.000000402778
  74      0.000000185098
 Ene=  -0.48027112140293E+01
 Spin= Alpha
 Occup=    1.000000
   1     -0.124367352466
   2     -0.051837157706
   3      0.359631027362