[Molden Format]
[Title]
generated by TRESC, imaginary part2 of MOs of job HO-Fe-O
 
[Atoms] AU
Fe   1  26   -0.5869356640    1.5846694120   -1.3253328659
 O   2   8    0.3176516003    0.6923332413   -4.5058909931
 O   3   8   -0.6562149084    4.6189079455   -1.7711910362
 H   4   1    0.5496400319    2.2319326884   -5.4721778109
[GTO]
  1 0
 s  6 1.0
    60923.6406430000        0.0045980778
     9147.8893982000        0.0193220084
     2081.3505927000        0.0775531983
      587.5597706700        0.2480208186
      191.0904399000        0.4675986791
       65.7327301100        0.3373548125
 s  1 1.0
      127.2589192800        1.0000000000
 s  1 1.0
       14.8309130100        1.0000000000
 s  1 1.0
        6.0653307400        1.0000000000
 s  1 1.0
       10.4499437100        1.0000000000
 s  1 1.0
        1.7245228000        1.0000000000
 s  1 1.0
        0.7177217700        1.0000000000
 s  1 1.0
        0.0914498300        1.0000000000
 s  1 1.0
        0.0337066900        1.0000000000
 p  5 1.0
      773.4375099500        0.0106099056
      182.1514971400        0.0713199466
       57.5472727600        0.2648513978
       20.6149889400        0.5090783315
        7.6348557900        0.3293226861
 p  1 1.0
        3.8719328000        1.0000000000
 p  1 1.0
        1.4924724100        1.0000000000
 p  1 1.0
        0.5606128500        1.0000000000
 d  4 1.0
       38.9681334200        0.0334987321
       10.8000670800        0.1771399682
        3.6136458000        0.4404450273
        1.2129967900        0.5720563253
 d  1 1.0
        0.3652439300        1.0000000000
 p  1 1.0
        0.1349150000        1.0000000000
 f  1 1.0
        1.5980000000        1.0000000000
 
  2 0
 s  5 1.0
     2266.1767785000        0.0060711540
      340.8701019100        0.0417308970
       77.3631351700        0.1850777598
       21.4796449400        0.4668774046
        6.6589433100        0.4435718061
 s  1 1.0
        0.8097597600        1.0000000000
 s  1 1.0
        0.2553077200        1.0000000000
 p  3 1.0
       17.7215043200        0.0628680198
        3.8635505400        0.3334973703
        1.0480920900        0.7412421661
 p  1 1.0
        0.2764154400        1.0000000000
 d  1 1.0
        1.2000000000        1.0000000000
 
  3 0
 s  5 1.0
     2266.1767785000        0.0060711540
      340.8701019100        0.0417308970
       77.3631351700        0.1850777598
       21.4796449400        0.4668774046
        6.6589433100        0.4435718061
 s  1 1.0
        0.8097597600        1.0000000000
 s  1 1.0
        0.2553077200        1.0000000000
 p  3 1.0
       17.7215043200        0.0628680198
        3.8635505400        0.3334973703
        1.0480920900        0.7412421661
 p  1 1.0
        0.2764154400        1.0000000000
 d  1 1.0
        1.2000000000        1.0000000000
 
  4 0
 s  3 1.0
       13.0107010000        0.0391282527
        1.9622572000        0.2855840539
        0.4445379600        0.7689908602
 s  1 1.0
        0.1219496200        1.0000000000
 p  1 1.0
        0.8000000000        1.0000000000
 
[5D]
[7F]
[9G]
[MO]
 Ene=   0.19199572830954E+00
 Spin= Alpha
 Occup=    0.000000
   1      0.000784033303
   2      0.000355545518
   3     -0.004561567480
   4     -0.007072407748
   5      0.003979641835
   6      0.021257630580
   7     -0.020155333856
   8      0.088339912994
   9     -0.036643665593
  10      0.011375871140
  11      0.002287269905
  12      0.009061386834
  13     -0.007564526357
  14     -0.000936619112
  15     -0.007455650659
  16     -0.055886255511
  17     -0.012887818496
  18     -0.037750821395
  19      0.082825432942
  20      0.020809492109
  21      0.055367596586
  22     -0.012450557585
  23     -0.004075832502
  24     -0.035610332887
  25      0.019764123475
  26     -0.193857975273
  27      0.031425022256
  28      0.000946407345
  29      0.079031500348
  30     -0.045610727277
  31      0.395409530583
  32      0.083749149631
  33      0.023237775157
  34     -0.027429569578
  35      0.001979922401
  36      0.001676449335
  37      0.000256531345
  38      0.000645523794
  39      0.002093364428
  40      0.003905616300
  41     -0.000334846405
  42      0.011716786414
  43     -0.059828115292
  44      0.052620700959
  45     -0.107554238009
  46      0.029243272853
  47      0.018345907072
  48      0.134113397242
  49     -0.052953816837
  50     -0.040574990406
  51     -0.008907124371
  52     -0.009391877158
  53      0.002735415707
  54     -0.000629550435
  55      0.006150313312
  56      0.001602596044
  57     -0.005129808031
  58     -0.013630906255
  59      0.264103864560
  60     -0.005576294476
  61      0.088668196636
  62     -0.482396490378
  63      0.010046596980
  64     -0.146390139140
  65      0.002512035182
  66      0.010273855551
  67     -0.011381124696
  68      0.002408713717
  69     -0.045813643011
  70      0.023342545194
  71     -0.059793217750
  72      0.022452677459
  73      0.007108804696
  74      0.015096324881
 Ene=   0.19355560689489E+00
 Spin= Alpha
 Occup=    0.000000
   1     -0.001539259731
   2     -0.000702297679
   3      0.009391382435
   4      0.015005338741
   5     -0.008890755153
   6     -0.043896105937
   7      0.042683958765
   8     -0.160401124408
   9      0.064482533597
  10      0.005514138870
  11     -0.004158135454
  12     -0.011901080524
  13     -0.004381680370
  14      0.003433163761
  15      0.010827460036
  16     -0.023698779921
  17      0.020394638651
  18      0.045506169038
  19      0.035299017860
  20     -0.036122430913
  21     -0.067678087854
  22      0.004129963063
  23     -0.002528338490
  24     -0.035753326960
  25      0.018971974380
  26     -0.030353937584
  27     -0.026176456467
  28      0.017692855586
  29      0.062345373253
  30     -0.026467645586
  31      0.066928294212
  32     -0.009677313368
  33     -0.023728246012
  34      0.096103343675
  35     -0.000689217311
  36      0.000784488096
  37      0.001263861504
  38     -0.000839661873
  39      0.000035550018
  40      0.000964491042
  41      0.000552157530
  42     -0.017077621019
  43      0.085372741983
  44     -0.062894781039
  45     -0.001201992335
  46     -0.060995122757
  47     -0.090660993933
  48     -0.006748587014
  49      0.110517816911
  50      0.135728202481
  51      0.006427581403
  52     -0.005091963464
  53     -0.000918251867
  54      0.006668122545
  55      0.001880914582
  56     -0.003368246881
  57      0.011795621892
  58      0.020844360173
  59      0.060857047613
  60      0.034988336043
  61     -0.019631017941
  62     -0.102918886624
  63     -0.067934379520
  64      0.010028977257
  65      0.004398870977
  66      0.000610728702
  67     -0.001340101317
  68      0.001508998448
  69     -0.009131453546
  70     -0.050811765632
  71      0.103014995676
  72      0.012027863375
  73     -0.011368277669
  74     -0.016421437913
 Ene=   0.19655832888154E+00
 Spin= Alpha
 Occup=    0.000000
   1     -0.009398818853
   2     -0.004288159333
   3      0.057325563462
   4      0.091576068865
   5     -0.054237412539
   6     -0.267947607655
   7      0.260139844519
   8     -0.969742476102
   9      0.381143067472
  10      0.019246083707
  11     -0.022211807964
  12     -0.074184468260
  13     -0.016729119173
  14      0.013736695303
  15      0.065476163005
  16     -0.075964117975
  17      0.115125165346
  18      0.288379590270
  19      0.113448787325
  20     -0.191446494128
  21     -0.424966252772
  22      0.039515656404
  23     -0.009772867297
  24     -0.153259938157
  25      0.081924146460
  26      0.028531594884
  27     -0.173221822056
  28      0.093250961860
  29      0.248535942906
  30     -0.087970235232
  31     -0.028515485368
  32     -0.132458198063
  33     -0.191208295224
  34      0.540169003011
  35     -0.006058853542
  36      0.002622415598
  37      0.006509413338
  38     -0.005468417919
  39     -0.001986297296
  40      0.001473698971
  41      0.003149500663
  42     -0.108556278404
  43      0.546726003366
  44     -0.425445498908
  45      0.105735439401
  46     -0.370479702211
  47     -0.509350471137
  48     -0.177132032890
  49      0.667241382005
  50      0.776240673492
  51      0.045036152221
  52     -0.018023070998
  53     -0.008268937966
  54      0.037185997709
  55      0.004287070983
  56     -0.014039080386
  57      0.035832070422
  58      0.182152620513
  59      0.073652121302
  60      0.186175447100
  61     -0.215427949926
  62     -0.088106960320
  63     -0.370173414449
  64      0.234419786607
  65      0.019549679538
  66     -0.007027033730
  67      0.005426884614
  68      0.003374397049
  69     -0.004616146859
  70     -0.301353084252
  71      0.631695883837
  72      0.043708934113
  73     -0.069923654988
  74     -0.111813212764
 Ene=   0.20677268514448E+00
 Spin= Alpha
 Occup=    0.000000
   1      0.000391648479
   2      0.000178390761
   3     -0.002357508688
   4     -0.003739698861
   5      0.002182501825
   6      0.011055632299
   7     -0.010670429021
   8      0.039945094022
   9     -0.013271868828
  10      0.001162652624
  11     -0.000254341902
  12      0.002955055251
  13     -0.000791605912
  14      0.001443650427
  15     -0.002570676142
  16     -0.005571777582
  17     -0.000838045609
  18     -0.011750611905
  19      0.007774570213
  20     -0.000903014677
  21      0.017228458146
  22      0.001828588987
  23      0.010527426499
  24      0.003908573498
  25     -0.005190902212
  26     -0.004359019855
  27     -0.002068841883
  28     -0.023825668342
  29     -0.005524520577
  30      0.006384089303
  31      0.007498130480
  32      0.011427433317
  33      0.016729054427
  34     -0.017289013160
  35      0.000041771878
  36     -0.000375265092
  37     -0.000319383304
  38      0.000436846996
  39     -0.000030345247
  40      0.000075432044
  41     -0.000106675475
  42      0.005220665315
  43     -0.026895153729
  44      0.024665444197
  45      0.022143800906
  46      0.014359559734
  47      0.025238558741
  48     -0.025929145317
  49     -0.023821391508
  50     -0.039305681389
  51     -0.000083197859
  52      0.003200293681
  53      0.000685492518
  54     -0.001952021441
  55      0.000076155638
  56     -0.001163836828
  57      0.008106211932
  58     -0.021095125514
  59      0.005246143156
  60     -0.007537349831
  61      0.011400171993
  62     -0.011816569225
  63      0.014508405084
  64     -0.015772078099
  65     -0.000395673050
  66     -0.000079353106
  67     -0.000722353839
  68      0.000766662127
  69     -0.001694702057
  70      0.008922472268
  71     -0.026745624793
  72     -0.007497729351
  73      0.002548431666
  74      0.002506120722
 Ene=   0.22769388362465E+00
 Spin= Alpha
 Occup=    0.000000
   1     -0.000057029527
   2     -0.000026461495
   3      0.000391984753
   4      0.000672130528
   5     -0.000438790079
   6     -0.001872202009
   7      0.002086087388
   8     -0.006282670583
   9     -0.003068334906
  10     -0.000196725408
  11      0.002421456449
  12      0.000414138736
  13      0.000186980061
  14     -0.003778324386
  15      0.000050029437
  16      0.000678360214
  17     -0.008466672972
  18     -0.001649695846
  19     -0.000998254964
  20      0.018113852626
  21      0.000808518919
  22      0.002760354952
  23     -0.000975575672
  24      0.001728156213
  25     -0.001251213715
  26      0.000046467490
  27     -0.001310734181
  28      0.000672961064
  29     -0.001465603020
  30      0.006026240655
  31     -0.000087956497
  32      0.002016840749
  33     -0.022934510584
  34     -0.001024225735
  35     -0.000122382933
  36      0.000035069500
  37     -0.000030521720
  38     -0.000023657458
  39     -0.000007296832
  40      0.000004761453
  41     -0.000010037731
  42     -0.001740844032
  43      0.009674513648
  44     -0.012807336293
  45      0.000800853271
  46      0.000946611654
  47      0.005739591662
  48     -0.001409450378
  49     -0.000494392858
  50     -0.005831636947
  51      0.000172362610
  52      0.000164171209
  53     -0.000151578275
  54     -0.000197048904
  55      0.000012614660
  56      0.003497157892
  57     -0.020181652539
  58      0.033963874401
  59     -0.000063699989
  60     -0.000578989053
  61     -0.001250566082
  62      0.000044105651
  63     -0.002466172370
  64      0.003282575225
  65     -0.001018775678
  66      0.000079539846
  67     -0.000423937275
  68     -0.001290424400
  69      0.000016920377
  70      0.001340617222
  71      0.003380107314
  72     -0.000286734384
  73     -0.000788000013
  74     -0.001162858064
 Ene=   0.26249439201954E+00
 Spin= Alpha
 Occup=    0.000000
   1     -0.000104215019
   2     -0.000045784778
   3      0.000454185523
   4      0.000548582506
   5     -0.000149972945
   6     -0.002068019312
   7      0.001070976756
   8     -0.007377368743
   9      0.004595141838
  10     -0.000231962085
  11      0.000345823934
  12      0.000648829973
  13      0.000404398369
  14     -0.000418877214
  15     -0.001209400470
  16      0.000870764102
  17     -0.000625320099
  18     -0.002565573297
  19     -0.002170246700
  20      0.000079102315
  21      0.006975120654
  22     -0.000867391045
  23      0.000956523018
  24      0.000651361876
  25      0.002625207370
  26      0.000009423884
  27      0.003277932535
  28     -0.002034577432
  29      0.000300888347
  30     -0.002497222384
  31     -0.000117538784
  32      0.003149045403
  33     -0.009788985278
  34     -0.009055621492
  35     -0.000129880060
  36     -0.000026200834
  37      0.000239153665
  38     -0.000227723615
  39     -0.000075299304
  40      0.000047912692
  41      0.000172427378
  42     -0.001034658776
  43      0.005708897263
  44     -0.008416434031
  45      0.000088659507
  46     -0.004907769061
  47     -0.000301225124
  48      0.001064227146
  49      0.009004983860
  50     -0.004165720675
  51     -0.000218697760
  52      0.000141963349
  53      0.000080582179
  54      0.000252632639
  55     -0.000014012463
  56      0.001082288085
  57     -0.007082921728
  58      0.012838910125
  59      0.001567043789
  60      0.004207973616
  61     -0.006305749328
  62     -0.002479876026
  63     -0.008479829707
  64      0.010261163075
  65      0.000371905043
  66     -0.000114800180
  67      0.000342020734
  68      0.000264389791
  69     -0.000075558518
  70     -0.004514581410
  71     -0.000190584479
  72      0.000059299324
  73      0.000786215656
  74      0.000017658148
 Ene=   0.29555573800827E+00
 Spin= Alpha
 Occup=    0.000000
   1      0.005398828610
   2      0.002275881123
   3     -0.013672854638
   4     -0.003280081039
   5     -0.016649318788
   6      0.060674925175
   7      0.013568368728
   8      0.658336150157
   9     -0.256044894027
  10      0.029701166313
  11     -0.087760293791
  12     -0.092964842578
  13     -0.024503250964
  14      0.092504726388
  15      0.072696918037
  16     -0.125685373409
  17      0.267057317075
  18      0.418598518021
  19      0.201133777752
  20     -0.308251975338
  21     -0.703577492748
  22     -0.043527815893
  23     -0.002580019746
  24     -0.057583719957
  25     -0.113388022942
  26      0.000477856590
  27     -0.221721715612
  28      0.085375564978
  29     -0.017055706202
  30     -0.061171869912
  31     -0.000100253159
  32     -0.247651774859
  33      1.098741836252
  34      0.696373747316
  35      0.005827070161
  36      0.002510356998
  37     -0.016329236023
  38      0.011893719966
  39      0.002397509372
  40     -0.000539788709
  41     -0.018569942457
  42      0.119569337298
  43     -0.719881678836
  44      1.217304194003
  45      0.057908032562
  46      0.034080536626
  47     -0.193151351263
  48     -0.118955853242
  49      0.057941506018
  50      0.399841373093
  51      0.042633466054
  52     -0.013913518743
  53      0.008120200081
  54      0.025460118484
  55      0.000385596708
  56     -0.157240177201
  57      0.998477521230
  58     -1.756776328776
  59     -0.022931514837
  60     -0.478719859711
  61      0.195951697185
  62      0.052303389671
  63      1.010791687260
  64     -0.435335907935
  65     -0.015133912658
  66      0.000007040804
  67      0.004928634389
  68     -0.024122516109
  69     -0.004588237118
  70     -0.100039407814
  71     -0.056777690751
  72      0.038644039017
  73     -0.023784364229
  74     -0.129607409681
 Ene=   0.31026394043341E+00
 Spin= Alpha
 Occup=    0.000000
   1     -0.004587363272
   2     -0.002154812233
   3      0.034146030408
   4      0.060273670985
   5     -0.041579801950
   6     -0.158923183351
   7      0.155355237781
   8     -0.188244158584
   9      0.058808980481
  10      0.008397514368
  11      0.030602805625
  12     -0.030258615248
  13     -0.006112331869
  14     -0.028281766263
  15      0.019716047411
  16     -0.043913323572
  17     -0.115010847270
  18      0.155305579094
  19      0.077467185188
  20      0.183602399823
  21     -0.262761413769
  22     -0.013862126920
  23      0.004716601093
  24     -0.111499397222
  25     -0.029217728165
  26      0.026411424162
  27      0.092097704610
  28     -0.025348849616
  29      0.313179887324
  30      0.127271547078
  31     -0.069557110441
  32     -0.002965496461
  33     -0.494826874085
  34      0.068090281112
  35     -0.003393121713
  36      0.002797736296
  37      0.001030877806
  38     -0.000145149436
  39     -0.001193396206
  40      0.000285844595
  41     -0.002882450814
  42     -0.001847168528
  43      0.006429430218
  44      0.144388765187
  45     -0.054934151854
  46     -0.089751975086
  47      0.194625802866
  48      0.127461530265
  49      0.380068264376
  50     -0.474896815366
  51      0.068882200061
  52     -0.027529255571
  53     -0.001409067233
  54      0.025822879181
  55      0.000894811178
  56      0.054633635064
  57     -0.348364422355
  58      0.735117748079
  59     -0.037344354594
  60     -0.006403554441
  61      0.116751150639
  62      0.079081088129
  63     -0.173641099937
  64     -0.212792164445
  65     -0.009648446774
  66      0.000367022160
  67     -0.028583963749
  68     -0.023528412915
  69      0.004586380509
  70     -0.159661232688
  71     -0.284461549700
  72      0.049596476033
  73     -0.036760758323
  74     -0.188220950406
 Ene=   0.33547705230898E+00
 Spin= Alpha
 Occup=    0.000000
   1     -0.000018284163
   2     -0.000005352775
   3     -0.000188461110
   4     -0.000558823809
   5      0.000628433192
   6      0.000581793281
   7      0.000459713550
   8     -0.028885183075
   9      0.000309651868
  10     -0.001057748274
  11      0.001764345576
  12      0.000337701904
  13      0.000808081014
  14     -0.002168265129
  15      0.001454457994
  16      0.004903944547
  17     -0.005582082324
  18     -0.003452569632
  19     -0.007922930012
  20      0.007536344996
  21      0.000808475161
  22      0.003642805578
  23     -0.002362737444
  24      0.009226125001
  25     -0.001967414939
  26     -0.003542505050
  27     -0.006096747454
  28      0.005257450246
  29     -0.021540051419
  30      0.008325700881
  31      0.008446053193
  32      0.001411878792
  33     -0.005625495002
  34      0.015459236980
  35      0.000114497741
  36     -0.000049618810
  37     -0.000215104131
  38      0.000151022264
  39      0.000224682049
  40     -0.000069779922
  41      0.000351252806
  42     -0.001255102920
  43      0.007712323382
  44     -0.016622066561
  45      0.002915519088
  46      0.013185392231
  47     -0.008284266363
  48     -0.010518548880
  49     -0.037780698268
  50      0.034598028241
  51     -0.003484365247
  52      0.000973619596
  53     -0.000053515918
  54     -0.002877685960
  55     -0.000089414224
  56      0.002509548843
  57     -0.015558314811
  58      0.025787596873
  59      0.002227174167
  60      0.008504980129
  61     -0.004668056271
  62     -0.005267138207
  63     -0.014484824054
  64      0.011498445435
  65     -0.000844779106
  66      0.000245414994
  67      0.001591015727
  68      0.000041408397
  69     -0.000457380510
  70      0.020952138201
  71      0.025979904953
  72     -0.002950007352
  73     -0.000551244757
  74      0.010406861863
 Ene=   0.34842637656119E+00
 Spin= Alpha
 Occup=    0.000000
   1     -0.000331869554
   2     -0.000157971198
   3      0.002701197334
   4      0.005048230320
   5     -0.003606636955
   6     -0.013627997049
   7      0.018639295929
   8     -0.058528818548
   9      0.000138064810
  10      0.000427294104
  11      0.003765767786
  12     -0.002726469056
  13     -0.000420268910
  14     -0.004579640224
  15      0.003008175752
  16     -0.001449492720
  17     -0.016246814816
  18      0.010257622161
  19      0.002246602649
  20      0.032864627868
  21     -0.018675985649
  22     -0.000998353332
  23     -0.002878393346
  24      0.006533250457
  25     -0.013129954940
  26     -0.003681121450
  27     -0.001814134864
  28      0.009635546313
  29     -0.020366617520
  30      0.031342962601
  31      0.009912338805
  32     -0.009388757657
  33     -0.020929453719
  34      0.045195209537
  35      0.000482596638
  36      0.000001521616
  37     -0.001115455626
  38      0.000685955479
  39      0.000317107868
  40     -0.000073246478
  41     -0.000738133340
  42      0.001426025105
  43     -0.007842481189
  44      0.007017283526
  45      0.007600327192
  46      0.014731867160
  47     -0.025305532505
  48     -0.019628269322
  49     -0.039365660042
  50      0.068750948148
  51     -0.002765498259
  52      0.000826321437
  53     -0.000384251082
  54     -0.002453204104
  55      0.000065760325
  56      0.001719987549
  57     -0.011617778078
  58      0.040823201489
  59      0.002350407578
  60     -0.008318435295
  61     -0.003504165174
  62     -0.004325504963
  63      0.002743111358
  64      0.009573004753
  65     -0.003541055614
  66      0.000206120773
  67      0.001088002560
  68     -0.004752518032
  69     -0.000997257686
  70      0.024390764861
  71      0.041350328276
  72     -0.001590135151
  73     -0.003868203243
  74      0.005465479830
 Ene=   0.37404012091771E+00
 Spin= Alpha
 Occup=    0.000000
   1     -0.012960493965
   2     -0.006063894890
   3      0.094379286299
   4      0.167027269372
   5     -0.112805444387
   6     -0.462496425414
   7      0.555414506456
   8     -1.769441297372
   9      0.203804821098
  10      0.014948571258
  11      0.081431974529
  12     -0.075645603469
  13     -0.012173543843
  14     -0.072918918272
  15      0.062318122219
  16     -0.066455843592
  17     -0.322239690966
  18      0.329213372583
  19      0.114222449329
  20      0.501043062532
  21     -0.556322359471
  22     -0.022982948376
  23     -0.068486655122
  24      0.103552377221
  25     -0.282225237692
  26     -0.062750701192
  27      0.054209260710
  28      0.202052504951
  29     -0.257880533560
  30      0.798968519465
  31      0.169155578005
  32     -0.199286447120
  33     -0.876173738177
  34      0.993321423590
  35      0.005087593738
  36      0.003297066446
  37     -0.020362739532
  38      0.012398949324
  39      0.007032132900
  40     -0.002282940322
  41     -0.010443269067
  42      0.021597224090
  43     -0.122363043963
  44      0.250779102275
  45      0.088814395497
  46      0.277998632287
  47     -0.319864633355
  48     -0.286052502143
  49     -0.619521681209
  50      1.037426616671
  51      0.003058300516
  52     -0.012641496319
  53     -0.007122259686
  54     -0.041063759923
  55      0.000215473768
  56      0.113525971720
  57     -0.775724323242
  58      1.888421155905
  59      0.011192598479
  60     -0.020906522603
  61     -0.017007435892
  62     -0.013168442828
  63     -0.488846299078
  64      0.125335492969
  65     -0.063005021422
  66      0.006300234028
  67      0.021869558005
  68     -0.075860184588
  69     -0.015737648617
  70      0.451206859637
  71      0.598034802644
  72      0.005700855090
  73     -0.118786734508
  74     -0.027990701916
 Ene=   0.42019600612050E+00
 Spin= Alpha
 Occup=    0.000000
   1     -0.000040151845
   2     -0.000026116110
   3      0.001049907720
   4      0.002502922585
   5     -0.002236303378
   6     -0.005397626248
   7      0.007153115645
   8      0.029682132609
   9     -0.007976213559
  10      0.003264363969
  11      0.004254012220
  12      0.002846095470
  13     -0.002581607078
  14     -0.004001677206
  15     -0.003613410030
  16     -0.014485784683
  17     -0.024792141939
  18     -0.013800400432
  19      0.023108165538
  20      0.055302993676
  21      0.029777823569
  22     -0.011137284854
  23      0.002718705140
  24     -0.009901531220
  25     -0.005634177297
  26      0.003111588849
  27      0.013101778701
  28     -0.002702196559
  29      0.015018655613
  30      0.002172409148
  31     -0.006805044833
  32     -0.013637933368
  33     -0.009932165928
  34     -0.020238124900
  35      0.000524674489
  36     -0.000213355514
  37     -0.000460566980
  38      0.000109075360
  39     -0.000345285451
  40      0.000143842973
  41     -0.001656407351
  42      0.002706974646
  43     -0.016361175582
  44      0.014430832616
  45      0.002970575508
  46     -0.015366513352
  47     -0.018126672393
  48      0.001604558011
  49      0.032994501583
  50      0.009822824590
  51     -0.003014391306
  52      0.002294111752
  53     -0.000371895012
  54      0.002614691591
  55      0.000351934335
  56     -0.005797092074
  57      0.039301226650
  58     -0.051357152742
  59      0.000251667621
  60     -0.025885132819
  61     -0.003310235910
  62      0.001945330917
  63      0.052456217479
  64      0.002504998014
  65     -0.002879973339
  66     -0.000416716791
  67     -0.003903083544
  68     -0.008188837865
  69     -0.000681153895
  70     -0.018955906689
  71      0.000445394401
  72      0.000615119069
  73      0.004450761091
  74     -0.000100043275
 Ene=   0.45100175697125E+00
 Spin= Alpha
 Occup=    0.000000
   1     -0.000899944333
   2     -0.000493652080
   3      0.014133646961
   4      0.031871191880
   5     -0.026802980716
   6     -0.074812503286
   7      0.094828345182
   8      0.268840820155
   9     -0.053393237023
  10     -0.008737964892
  11      0.086624202750
  12      0.083007398446
  13      0.004099694937
  14     -0.052046377430
  15     -0.056515588289
  16      0.054266411962
  17     -0.486924162113
  18     -0.424078057700
  19     -0.105416350277
  20      0.931054705381
  21      0.740247568521
  22     -0.234277075262
  23      0.075220322199
  24     -0.167630175746
  25     -0.157074777261
  26      0.033055043170
  27      0.459751325492
  28     -0.153428706873
  29      0.325976254778
  30      0.278556487562
  31     -0.069804820800
  32      0.120316611731
  33     -0.614430861224
  34     -0.621275402557
  35      0.010950922074
  36     -0.007376625486
  37     -0.005980795696
  38      0.001445671266
  39     -0.007164539282
  40      0.004700541163
  41     -0.027888713314
  42      0.012472534056
  43     -0.038373977311
  44     -0.284650426156
  45      0.066275751569
  46     -0.246940665928
  47     -0.227409706617
  48      0.017815317719
  49      0.434022268154
  50     -0.072463993522
  51     -0.075412156442
  52      0.047347571809
  53     -0.005540152596
  54      0.027708571926
  55      0.005527548869
  56     -0.055772015621
  57      0.348784455234
  58     -0.117775557758
  59      0.039807746669
  60     -0.386665763666
  61     -0.091573206202
  62     -0.055840377321
  63      0.517086800416
  64      0.179866091243
  65     -0.039262166077
  66     -0.010748846171
  67     -0.066618816776
  68     -0.123989371355
  69     -0.000850740470
  70     -0.219020582333
  71     -0.007330698769
  72     -0.019543495805
  73      0.106065846088
  74      0.089796058678
 Ene=   0.46036430225626E+00
 Spin= Alpha
 Occup=    0.000000
   1      0.000267564246
   2      0.000136191996
   3     -0.003099896482
   4     -0.006543156527
   5      0.005212344924
   6      0.016132498514
   7     -0.019653202942
   8     -0.026705757974
   9      0.002333913896
  10      0.186847135318
  11     -0.004732580517
  12      0.034234523284
  13     -0.138366580257
  14     -0.000516001208
  15     -0.026344187687
  16     -0.890236695799
  17      0.035921148612
  18     -0.157970541600
  19      1.488679127891
  20     -0.073525239921
  21      0.258566232095
  22      0.020686622302
  23     -0.069598841258
  24      0.044895647163
  25      0.043266027111
  26      0.052352369474
  27     -0.040626270195
  28      0.159140602672
  29     -0.097340730936
  30     -0.090700901826
  31     -0.122549567569
  32     -0.829886952702
  33      0.095917039745
  34     -0.091365794006
  35     -0.000397076055
  36      0.003623701224
  37      0.001274993535
  38     -0.003413765810
  39      0.001170442921
  40     -0.006690023413
  41      0.004099673347
  42     -0.001397409245
  43     -0.001866211411
  44      0.072902832208
  45     -0.104234696571
  46      0.041085753456
  47      0.008471461896
  48      0.211399621227
  49     -0.063597253091
  50      0.093821509203
  51      0.014001688375
  52     -0.003442883135
  53     -0.000080125821
  54     -0.005240237244
  55     -0.004895695135
  56      0.006960442491
  57     -0.038825942124
  58     -0.040057198019
  59     -0.091913897006
  60      0.063867348395
  61     -0.006379355193
  62      0.238667321001
  63     -0.052456476758
  64      0.024618421280
  65      0.011182861135
  66      0.011868180895
  67      0.003981461634
  68      0.022850689662
  69     -0.032373212719
  70      0.031344583503
  71      0.012047848493
  72     -0.006302318385
  73     -0.019488018732
  74     -0.021225023489
 Ene=   0.49330911049793E+00
 Spin= Alpha
 Occup=    0.000000
   1     -0.000604830332
   2     -0.000280598371
   3      0.004144124236