[Molden Format]
[Title]
generated by TRESC, real part2 of MOs of job HO-Fe-O
 
[Atoms] AU
Fe   1  26   -0.5869356640    1.5846694120   -1.3253328659
 O   2   8    0.3176516003    0.6923332413   -4.5058909931
 O   3   8   -0.6562149084    4.6189079455   -1.7711910362
 H   4   1    0.5496400319    2.2319326884   -5.4721778109
[GTO]
  1 0
 s  6 1.0
    60923.6406430000        0.0045980778
     9147.8893982000        0.0193220084
     2081.3505927000        0.0775531983
      587.5597706700        0.2480208186
      191.0904399000        0.4675986791
       65.7327301100        0.3373548125
 s  1 1.0
      127.2589192800        1.0000000000
 s  1 1.0
       14.8309130100        1.0000000000
 s  1 1.0
        6.0653307400        1.0000000000
 s  1 1.0
       10.4499437100        1.0000000000
 s  1 1.0
        1.7245228000        1.0000000000
 s  1 1.0
        0.7177217700        1.0000000000
 s  1 1.0
        0.0914498300        1.0000000000
 s  1 1.0
        0.0337066900        1.0000000000
 p  5 1.0
      773.4375099500        0.0106099056
      182.1514971400        0.0713199466
       57.5472727600        0.2648513978
       20.6149889400        0.5090783315
        7.6348557900        0.3293226861
 p  1 1.0
        3.8719328000        1.0000000000
 p  1 1.0
        1.4924724100        1.0000000000
 p  1 1.0
        0.5606128500        1.0000000000
 d  4 1.0
       38.9681334200        0.0334987321
       10.8000670800        0.1771399682
        3.6136458000        0.4404450273
        1.2129967900        0.5720563253
 d  1 1.0
        0.3652439300        1.0000000000
 p  1 1.0
        0.1349150000        1.0000000000
 f  1 1.0
        1.5980000000        1.0000000000
 
  2 0
 s  5 1.0
     2266.1767785000        0.0060711540
      340.8701019100        0.0417308970
       77.3631351700        0.1850777598
       21.4796449400        0.4668774046
        6.6589433100        0.4435718061
 s  1 1.0
        0.8097597600        1.0000000000
 s  1 1.0
        0.2553077200        1.0000000000
 p  3 1.0
       17.7215043200        0.0628680198
        3.8635505400        0.3334973703
        1.0480920900        0.7412421661
 p  1 1.0
        0.2764154400        1.0000000000
 d  1 1.0
        1.2000000000        1.0000000000
 
  3 0
 s  5 1.0
     2266.1767785000        0.0060711540
      340.8701019100        0.0417308970
       77.3631351700        0.1850777598
       21.4796449400        0.4668774046
        6.6589433100        0.4435718061
 s  1 1.0
        0.8097597600        1.0000000000
 s  1 1.0
        0.2553077200        1.0000000000
 p  3 1.0
       17.7215043200        0.0628680198
        3.8635505400        0.3334973703
        1.0480920900        0.7412421661
 p  1 1.0
        0.2764154400        1.0000000000
 d  1 1.0
        1.2000000000        1.0000000000
 
  4 0
 s  3 1.0
       13.0107010000        0.0391282527
        1.9622572000        0.2855840539
        0.4445379600        0.7689908602
 s  1 1.0
        0.1219496200        1.0000000000
 p  1 1.0
        0.8000000000        1.0000000000
 
[5D]
[7F]
[9G]
[MO]
 Ene=   0.19199572830954E+00
 Spin= Alpha
 Occup=    0.000000
   1      0.000363909278
   2      0.000163345024
   3     -0.001948248052
   4     -0.002860685922
   5      0.001431819197
   6      0.009152649508
   7     -0.008539890086
   8      0.045924673713
   9     -0.020914678823
  10      0.020633526413
  11      0.002190282884
  12      0.007956716813
  13     -0.013735169628
  14     -0.001541217914
  15     -0.006135580484
  16     -0.100295940363
  17     -0.011459951523
  18     -0.034949345629
  19      0.148215274064
  20      0.019838634942
  21      0.051111393466
  22     -0.012026742313
  23     -0.017178222602
  24     -0.077087539408
  25      0.042710363199
  26     -0.334499324141
  27      0.027480571631
  28      0.028892814770
  29      0.162715369287
  30     -0.092031384444
  31      0.684580997849
  32      0.129735351471
  33      0.010467413047
  34      0.007488219648
  35      0.002554600800
  36      0.003517062161
  37      0.001341927311
  38      0.000169138362
  39      0.003454217232
  40      0.006961174394
  41     -0.000121257001
  42      0.002930058241
  43     -0.015878745056
  44      0.014961515195
  45     -0.191595811489
  46      0.002728976853
  47     -0.024970309065
  48      0.232921753387
  49     -0.003116992874
  50      0.019640584091
  51     -0.011043694063
  52     -0.019623358319
  53      0.003864444946
  54      0.004392717837
  55      0.011099578126
  56      0.001908399818
  57     -0.008110571541
  58     -0.000893247472
  59      0.466286518999
  60      0.014622979664
  61      0.122920468764
  62     -0.846206834060
  63     -0.026087988487
  64     -0.216997000277
  65      0.006324542642
  66      0.017461563186
  67     -0.019021457681
  68      0.004512330253
  69     -0.079446810045
  70     -0.002229878678
  71     -0.020022053966
  72      0.047749739195
  73      0.003176090852
  74      0.013186042356
 Ene=   0.19355560689489E+00
 Spin= Alpha
 Occup=    0.000000
   1      0.000157492434
   2      0.000071249365
   3     -0.000899365955
   4     -0.001382576572
   5      0.000758394261
   6      0.004237681596
   7     -0.004049097394
   8      0.018169060029
   9     -0.007930310706
  10      0.008378034917
  11      0.000842009479
  12      0.003378580051
  13     -0.006482909328
  14     -0.000622269443
  15     -0.002787794150
  16     -0.039151621041
  17     -0.004267442244
  18     -0.014541703997
  19      0.059309873592
  20      0.007272740205
  21      0.021601047283
  22      0.003870176792
  23      0.009457059605
  24     -0.019001698436
  25      0.007062811907
  26     -0.089244463304
  27     -0.007284911103
  28     -0.022680005173
  29      0.040351618268
  30     -0.015636888471
  31      0.181695542151
  32      0.041422595712
  33      0.003880147234
  34      0.000432466514
  35      0.000298980606
  36      0.000462909688
  37      0.000199370417
  38      0.000371829636
  39      0.000720223623
  40      0.001917063875
  41      0.000051768148
  42      0.001486422843
  43     -0.007881520273
  44      0.007264715295
  45     -0.007349933608
  46      0.004016586720
  47      0.009170369243
  48      0.007029624959
  49     -0.005885258616
  50     -0.015619392487
  51     -0.000945703204
  52     -0.000807629751
  53      0.001298264990
  54     -0.000363258631
  55      0.003193228026
  56      0.000574305510
  57     -0.002325210836
  58     -0.001314746179
  59      0.128774607708
  60      0.003208559331
  61      0.034789420991
  62     -0.234494588084
  63     -0.005515774381
  64     -0.061227971942
  65      0.001285514231
  66      0.004023753419
  67     -0.005659344364
  68      0.001656245980
  69     -0.022877555158
  70      0.000927499929
  71     -0.009384017373
  72      0.002689422693
  73      0.001054038630
  74      0.001342755651
 Ene=   0.19655832888154E+00
 Spin= Alpha
 Occup=    0.000000
   1     -0.001016329916
   2     -0.000464228687
   3      0.006252972920
   4      0.010039235781
   5     -0.005998791722
   6     -0.029220196642
   7      0.028575273690
   8     -0.105038122533
   9      0.039866954645
  10      0.004381544398
  11     -0.002011788389
  12     -0.007518284427
  13     -0.003827801676
  14      0.000788477755
  15      0.006693772787
  16     -0.018582091237
  17      0.010918109786
  18      0.029052723000
  19      0.028490394569
  20     -0.016798002320
  21     -0.043090202268
  22      0.008713153521
  23      0.004840859493
  24     -0.018476309037
  25      0.007859890430
  26     -0.009095556811
  27     -0.027137882774
  28     -0.002572270845
  29      0.031231456248
  30     -0.007223457115
  31      0.021633348954
  32     -0.007082420759
  33     -0.024617109995
  34      0.060635757819
  35     -0.000825239865
  36      0.000225780604
  37      0.000673151901
  38     -0.000471489335
  39     -0.000195715766
  40      0.000460055870
  41      0.000348322860
  42     -0.012471125953
  43      0.062768356319
  44     -0.049241624594
  45      0.025638035385
  46     -0.041089622070
  47     -0.049822427248
  48     -0.037921509659
  49      0.074876074058
  50      0.077698116694
  51      0.005825327124
  52     -0.000580518206
  53     -0.000648929210
  54      0.003714196523
  55      0.001021378349
  56     -0.000935942107
  57      0.000648019187
  58      0.024965307412
  59      0.028152889500
  60      0.019728416483
  61     -0.020286575962
  62     -0.046013991247
  63     -0.040200913251
  64      0.019375110834
  65      0.001972932827
  66     -0.000445560656
  67     -0.000303541061
  68      0.000492468263
  69     -0.004303966230
  70     -0.034363567653
  71      0.070560109456
  72      0.001948280360
  73     -0.007903755063
  74     -0.014066907831
 Ene=   0.20677268514448E+00
 Spin= Alpha
 Occup=    0.000000
   1     -0.000291258523
   2     -0.000130708329
   3      0.001551829185
   4      0.002219286185
   5     -0.001119452631
   6     -0.006795045573
   7      0.005646771505
   8     -0.032520045315
   9      0.013959299305
  10      0.045526006898
  11      0.000747096713
  12      0.009542476165
  13     -0.033785818777
  14     -0.000694939468
  15     -0.006829352826
  16     -0.204597963317
  17     -0.002670865430
  18     -0.044052385995
  19      0.290227308847
  20      0.002715098876
  21      0.062005765011
  22      0.136250213833
  23      0.252941706779
  24     -0.005963736845
  25     -0.061486499119
  26     -0.046080310725
  27     -0.280903979008
  28     -0.516737881531
  29      0.011285800626
  30      0.128729928301
  31      0.097147997705
  32      0.173617521743
  33     -0.007615864826
  34      0.061303622240
  35     -0.007219568072
  36     -0.007271802252
  37     -0.001444551521
  38      0.004812040131
  39     -0.003183551909
  40      0.002689751944
  41      0.001935824357
  42     -0.005539044473
  43      0.026781975372
  44     -0.018381422005
  45      0.725153329977
  46     -0.003450341337
  47      0.189363168204
  48     -0.921964977115
  49      0.020457936944
  50     -0.238676252481
  51      0.040368638525
  52      0.072231679192
  53      0.003880040474
  54     -0.020213471509
  55      0.005945551172
  56     -0.000890795318
  57      0.002577687368
  58      0.006710711468
  59      0.169766869190
  60      0.018618874595
  61      0.018784054762
  62     -0.321334644877
  63     -0.035550944751
  64     -0.054524535459
  65     -0.003428820201
  66     -0.010210598875
  67     -0.011762886146
  68      0.009316240323
  69     -0.040907847679
  70     -0.023214150949
  71      0.024053043888
  72     -0.163696910512
  73     -0.006531855566
  74     -0.054339635326
 Ene=   0.22769388362465E+00
 Spin= Alpha
 Occup=    0.000000
   1     -0.000002356470
   2     -0.000000986540
   3      0.000005111127
   4     -0.000002189876
   5      0.000009522779
   6     -0.000007187057
   7     -0.000032396676
   8     -0.000245046933
   9     -0.000167521645
  10      0.000297543321
  11      0.000133311557
  12      0.000113339904
  13      0.001578475779
  14     -0.000118654978
  15      0.000410523988
  16     -0.002765005125
  17     -0.000513978892
  18     -0.000856582080
  19     -0.002294033362
  20      0.000717903873
  21     -0.000529171788
  22      0.005820242987
  23      0.010861734652
  24     -0.001208822973
  25     -0.002148421333
  26     -0.006814993807
  27     -0.011378527699
  28     -0.021937334777
  29      0.002891263529
  30      0.004442513232
  31      0.014699537250
  32      0.019182835263
  33     -0.000773764463
  34      0.004715889301
  35     -0.000272312905
  36     -0.000273010048
  37     -0.000042304175
  38      0.000231706148
  39     -0.000075581979
  40      0.000256325815
  41      0.000087819336
  42     -0.000141225145
  43      0.000717425128
  44     -0.000738634856
  45      0.026515098857
  46      0.000389042300
  47      0.008045038667
  48     -0.034999841314
  49     -0.000135760243
  50     -0.010775079995
  51      0.001466571603
  52      0.002735929246
  53      0.000200024616
  54     -0.000838245068
  55      0.000375421440
  56      0.000223130470
  57     -0.001320390183
  58      0.002249834463
  59      0.015268346375
  60      0.001046857255
  61      0.003321574795
  62     -0.028399433650
  63     -0.002103944662
  64     -0.006588022828
  65     -0.000152865148
  66     -0.000237698043
  67     -0.000765045621
  68      0.000367470237
  69     -0.002606315459
  70     -0.000460134157
  71      0.000068371295
  72     -0.006316524406
  73     -0.000180915007
  74     -0.001948270404
 Ene=   0.26249439201954E+00
 Spin= Alpha
 Occup=    0.000000
   1      0.000017828523
   2      0.000007229001
   3     -0.000015650778
   4      0.000065786476
   5     -0.000128231707
   6      0.000043931666
   7      0.000345299908
   8      0.001931244321
   9     -0.000518867276
  10      0.000327884951
  11     -0.000667677103
  12     -0.000461416675
  13     -0.000278123031
  14      0.000861896054
  15      0.000348118892
  16     -0.001404327184
  17      0.002149157108
  18      0.001976779660
  19      0.002205849589
  20     -0.003462276951
  21     -0.003132652750
  22     -0.000115936715
  23      0.001903933267
  24     -0.000280324951
  25     -0.000829101183
  26      0.000457601906
  27     -0.001165712638
  28     -0.002317690669
  29     -0.000075028530
  30      0.000467904542
  31     -0.000668300695
  32     -0.001362504882
  33      0.006344948727
  34      0.003639467589
  35      0.000027741883
  36     -0.000023947523
  37     -0.000083102945
  38      0.000073866824
  39     -0.000001826839
  40     -0.000004160144
  41     -0.000089848428
  42      0.000871846205
  43     -0.005008523636
  44      0.007616024493
  45      0.002142512121
  46      0.000083386136
  47     -0.001423588403
  48     -0.002973787416
  49      0.000150220440
  50      0.002166180743
  51      0.000347877027
  52      0.000239541419
  53      0.000067714611
  54      0.000004621379
  55     -0.000006227606
  56     -0.000953900814
  57      0.005684409865
  58     -0.009128427616
  59     -0.000118228056
  60     -0.002395523723
  61      0.000846424537
  62      0.000329609595
  63      0.004324786122
  64     -0.001927309011
  65      0.000020542179
  66     -0.000123521088
  67      0.000087881379
  68      0.000057936001
  69     -0.000067874243
  70     -0.000384226698
  71     -0.000682125683
  72     -0.000560395000
  73      0.000021924066
  74     -0.000622373179
 Ene=   0.29555573800827E+00
 Spin= Alpha
 Occup=    0.000000
   1      0.000408522649
   2      0.000161640678
   3      0.000044892797
   4      0.002515903380
   5     -0.003933174755
   6     -0.000648974863
   7      0.009606331523
   8      0.062421755510
   9     -0.028280192729
  10      0.006024629527
  11     -0.007904752010
  12     -0.011684087098
  13     -0.006610743893
  14      0.008081729798
  15      0.009002656454
  16     -0.025232684549
  17      0.022386126837
  18      0.053272299028
  19      0.046662923933
  20     -0.020119601091
  21     -0.089756556011
  22     -0.006205177234
  23     -0.003350223696
  24     -0.009447878018
  25     -0.015455667075
  26      0.004869962917
  27     -0.020375678256
  28      0.015664995221
  29      0.006754072467
  30      0.001230175465
  31     -0.009880765680
  32     -0.045861287765
  33      0.101011942880
  34      0.084958264947
  35      0.000631922620
  36      0.000484880982
  37     -0.001950072993
  38      0.001364419733
  39      0.000269546444
  40     -0.000208600614
  41     -0.002339813234
  42      0.013582833049
  43     -0.081961394383
  44      0.144988400345
  45      0.000354627783
  46      0.002645394993
  47     -0.017273497009
  48     -0.002756922439
  49      0.016622265382
  50      0.035646252612
  51      0.007256291009
  52     -0.003038224021
  53      0.000757591572
  54      0.003739375135
  55     -0.000045985426
  56     -0.015230377066
  57      0.097083026012
  58     -0.164727753873
  59     -0.010274617880
  60     -0.056248341359
  61      0.026299029909
  62      0.021472332633
  63      0.110327930042
  64     -0.056057197255
  65     -0.002653685059
  66      0.000123892483
  67     -0.000463653132
  68     -0.004519668907
  69      0.000185655714
  70     -0.014481263372
  71     -0.012918866977
  72      0.007201476999
  73     -0.004826874853
  74     -0.021719913723
 Ene=   0.31026394043341E+00
 Spin= Alpha
 Occup=    0.000000
   1     -0.007219733194
   2     -0.003401784080
   3      0.054810434178
   4      0.097601965279
   5     -0.068090604247
   6     -0.255303870995
   7      0.252753026801
   8     -0.279228340069
   9      0.084676262662
  10      0.010948340995
  11      0.046148638535
  12     -0.053399495494
  13     -0.005769677605
  14     -0.042618671021
  15      0.035455424043
  16     -0.059962381636
  17     -0.176229045397
  18      0.270916478106
  19      0.100152763888
  20      0.288459276215
  21     -0.457769301475
  22     -0.024520131675
  23      0.008637524726
  24     -0.183133819857
  25     -0.052237714664
  26      0.041117190499
  27      0.139342310360
  28     -0.040825496917
  29      0.505579306537
  30      0.204341781477
  31     -0.107681530951
  32      0.006005018919
  33     -0.756309857219
  34      0.142311504609
  35     -0.005237059530
  36      0.004508572737
  37      0.000947521616
  38      0.000332085480
  39     -0.001853411996
  40      0.000595195539
  41     -0.005511633847
  42      0.001734865437
  43     -0.018048918323
  44      0.279205303712
  45     -0.082039227432
  46     -0.144695560461
  47      0.302741887389
  48      0.192532945470
  49      0.616783707374
  50     -0.745448684031
  51      0.112314499505
  52     -0.044638416794
  53     -0.002033813560
  54      0.042811421742
  55      0.001632932918
  56      0.081508060019
  57     -0.519706314881
  58      1.114179124680
  59     -0.056943353582
  60     -0.031399545276
  61      0.195061943713
  62      0.120287526731
  63     -0.236202000529
  64     -0.359568116199
  65     -0.016580878831
  66      0.000392564402
  67     -0.045981228420
  68     -0.039797623215
  69      0.007460532116
  70     -0.262254290359
  71     -0.456865254842
  72      0.081373845326
  73     -0.060282265485
  74     -0.308266196042
 Ene=   0.33547705230898E+00
 Spin= Alpha
 Occup=    0.000000
   1      0.000000862250
   2      0.000000574793
   3     -0.000023746594
   4     -0.000055976160
   5      0.000050770480
   6      0.000115322599
   7     -0.000155955463
   8     -0.000442753602
   9      0.000074029413
  10     -0.000826385668
  11     -0.000002566559
  12     -0.000166850618
  13      0.001058548742
  14      0.000023677314
  15      0.000284885377
  16      0.003460522056
  17      0.000100608665
  18      0.000663396137
  19     -0.007000159167
  20     -0.000440759682
  21     -0.001602193027
  22      0.000212746101
  23      0.000087019186
  24     -0.000087932449
  25      0.000167533718
  26     -0.001144293359
  27     -0.000526076783
  28     -0.000881377911
  29      0.000177835320
  30      0.000046615207
  31      0.002078951317
  32      0.005117501814
  33     -0.000171516390
  34      0.001158698303
  35     -0.000026862787
  36     -0.000025017656
  37      0.000004968028
  38      0.000021770103
  39     -0.000000515433
  40      0.000037442950
  41      0.000032256029
  42     -0.000082380047
  43      0.000497172602
  44     -0.000799234126
  45      0.002022498286
  46      0.000293964544
  47      0.000859176491
  48     -0.002800840237
  49     -0.000719510589
  50     -0.000956653469
  51     -0.000013661350
  52      0.000054851820
  53      0.000013474365
  54     -0.000077058559
  55      0.000031387669
  56      0.000129966713
  57     -0.000814442197
  58      0.001220724741
  59      0.001263930604
  60      0.000551122665
  61      0.000260923660
  62     -0.002846262316
  63     -0.001030526186
  64     -0.000520072144
  65      0.000010083309
  66      0.000006719102
  67      0.000002553063
  68      0.000067534464
  69     -0.000078144590
  70      0.000359891821
  71      0.000133793250
  72     -0.000246095702
  73     -0.000001820596
  74      0.000139890583
 Ene=   0.34842637656119E+00
 Spin= Alpha
 Occup=    0.000000
   1     -0.000023127294
   2     -0.000010919708
   3      0.000178990490
   4      0.000327266981
   5     -0.000228211255
   6     -0.000896531320
   7      0.001194996673
   8     -0.004039406513
   9      0.000064012501
  10     -0.004223544056
  11      0.000026696826
  12     -0.001347209032
  13      0.004896224920
  14     -0.000029862565
  15      0.001541042254
  16      0.018252864138
  17     -0.000052255678
  18      0.005756339530
  19     -0.035091294701
  20      0.000054123399
  21     -0.011010909466
  22      0.000996733153
  23      0.001790279948
  24      0.000244321188
  25     -0.001275356757
  26     -0.001233583899
  27     -0.002283037133
  28     -0.003865462820
  29     -0.000572244220
  30      0.003031250004
  31      0.003702531216
  32      0.020775683122
  33     -0.000712345079
  34      0.008658788173
  35     -0.000041854479
  36     -0.000080590365
  37     -0.000078162267
  38      0.000130333957
  39      0.000011362043
  40      0.000121470441
  41     -0.000008137719
  42      0.000076790270
  43     -0.000390128308
  44      0.000364071933
  45      0.004495458233
  46      0.001143107495
  47     -0.000103904340
  48     -0.008840052068
  49     -0.002892640953
  50      0.001621077107
  51      0.000003342006
  52      0.000242661602
  53     -0.000008722213
  54     -0.000241284194
  55      0.000018283455
  56      0.000224864441
  57     -0.001473650702
  58      0.003910299470
  59      0.002071100576
  60     -0.000183520534
  61      0.000351413394
  62     -0.006258067368
  63     -0.000791227869
  64     -0.001108850632
  65     -0.000350866486
  66     -0.000233392113
  67      0.000208166530
  68     -0.000303745935
  69      0.000572217581
  70      0.001689169892
  71      0.002268935473
  72     -0.000797693537
  73     -0.000290037316
  74      0.000120195350
 Ene=   0.37404012091771E+00
 Spin= Alpha
 Occup=    0.000000
   1     -0.001314832886
   2     -0.000616887537
   3      0.009750020598
   4      0.017397067159
   5     -0.011879018444
   6     -0.047788658873
   7      0.057632368875
   8     -0.173862630044
   9      0.019010219944
  10     -0.003188460817
  11      0.007956679243
  12     -0.009504023901
  13      0.003916280988
  14     -0.007273639328
  15      0.007709747377
  16      0.014074821420
  17     -0.032212652513
  18      0.041737514150
  19     -0.027829562599
  20      0.052374761649
  21     -0.070082056910
  22     -0.002052977909
  23     -0.004035093620
  24      0.009013076508
  25     -0.029861355931
  26     -0.006347226004
  27      0.002089520272
  28      0.015130598851
  29     -0.023842931877
  30      0.081014156856
  31      0.019154731097
  32      0.002695423750
  33     -0.083171784433
  34      0.109941948851
  35      0.000480055320
  36      0.000243404663
  37     -0.002177385276
  38      0.001415659011
  39      0.000676436303
  40     -0.000055976767
  41     -0.001244943858
  42      0.003001508108
  43     -0.017530018700
  44      0.033948544679
  45      0.015082821142
  46      0.026357016632
  47     -0.033631075719
  48     -0.039101872988
  49     -0.057801028053
  50      0.105290897086
  51      0.000688809343
  52     -0.000878684485
  53     -0.000749079752
  54     -0.003763210631
  55      0.000014792544
  56      0.010294192983
  57     -0.070466408136
  58      0.178091201516
  59      0.004109795004
  60     -0.006216519279
  61     -0.000384106763
  62     -0.008468162145
  63     -0.040149415070
  64      0.008537906904
  65     -0.006922931346
  66      0.000248026184
  67      0.002049317311
  68     -0.008676088065
  69     -0.000821029439
  70      0.042532572991
  71      0.059978198870
  72     -0.000200241690
  73     -0.011969630630
  74     -0.004590687803
 Ene=   0.42019600612050E+00
 Spin= Alpha
 Occup=    0.000000
   1      0.000022965369
   2      0.000010218661
   3     -0.000112634256
   4     -0.000152549771
   5      0.000063553289
   6      0.000531539030
   7     -0.000535420397
   8      0.004853891774
   9     -0.001136157255
  10     -0.012463708899
  11     -0.000492158182
  12     -0.003198672001
  13      0.011112710907
  14      0.000403042021
  15      0.002759191081
  16      0.057239250680
  17      0.001895598879
  18      0.014720443853
  19     -0.100427593699
  20     -0.002428068235
  21     -0.025480910522
  22      0.001246119722
  23      0.004054716227
  24     -0.001866852008
  25     -0.000524579225
  26     -0.004707549209
  27     -0.003805243955
  28     -0.009882931384
  29      0.003797901456
  30      0.000527337784
  31      0.010440236927
  32      0.057457386598
  33      0.003409354450
  34      0.013100902617
  35     -0.000111189373
  36     -0.000190602290
  37     -0.000020665120
  38      0.000222598666
  39     -0.000027231333
  40      0.000417247782
  41     -0.000015374847
  42      0.000155737519
  43     -0.000862441461
  44      0.000399105455
  45      0.008127798181
  46     -0.000945006602
  47      0.001853311162
  48     -0.016557643779
  49      0.001845275209
  50     -0.006079816400
  51     -0.000186086077
  52      0.000032326796
  53      0.000059618451
  54      0.000196755690
  55      0.000238991305
  56     -0.000461479008
  57      0.003245373189
  58     -0.005243054446
  59      0.006900992550
  60     -0.001244550439
  61      0.001699792961
  62     -0.018085300958
  63      0.003037090232
  64     -0.005021043250
  65     -0.000458086558
  66     -0.000640546962
  67      0.000140107311
  68     -0.000579309277
  69      0.001806896454
  70     -0.001503756335
  71     -0.001096343841
  72      0.000010503885
  73      0.000450061988
  74      0.000191369486
 Ene=   0.45100175697125E+00
 Spin= Alpha
 Occup=    0.000000
   1     -0.000139430002
   2     -0.000073389533
   3      0.001865528021
   4      0.004065846131
   5     -0.003339489040
   6     -0.009717170413
   7      0.011995348459
   8      0.026958331487
   9     -0.004659353548
  10     -0.058193945597
  11      0.006270805057
  12     -0.006378289006
  13      0.044874859136
  14     -0.002967910212
  15      0.005304955954
  16      0.275953512303
  17     -0.038349896470
  18      0.027060708525
  19     -0.467288560010
  20      0.076285235625
  21     -0.041617925299
  22     -0.019122452749
  23      0.025785020055
  24     -0.023763362163
  25     -0.021570367704
  26     -0.013713708457
  27      0.035919118621
  28     -0.057877981604
  29      0.048637454294
  30      0.041216765204
  31      0.033604435209
  32      0.264856103647
  33     -0.059850858626
  34     -0.003591623592
  35      0.000705816586
  36     -0.001524040074
  37     -0.000756241294
  38      0.001155883848
  39     -0.000765427868
  40      0.002325817560
  41     -0.002867249530
  42      0.001492685853
  43     -0.004116681599
  44     -0.033181022651
  45      0.036622606626
  46     -0.027251173733
  47     -0.016069474185
  48     -0.065740074355
  49      0.046706694073
  50     -0.031652999524
  51     -0.008170162127
  52      0.003787540264
  53     -0.000391110179
  54      0.003456473182
  55      0.001767635942
  56     -0.005814836331
  57      0.035580237819
  58     -0.002999658082
  59      0.030608611964
  60     -0.042639023653
  61     -0.002563365299
  62     -0.077376493475
  63      0.050351745689
  64      0.000396730209
  65     -0.005848335658
  66     -0.004259921000
  67     -0.005127805200
  68     -0.014403967121
  69      0.009858088739
  70     -0.023686327356
  71     -0.004608283923
  72      0.000651006663
  73      0.011573131463
  74      0.009941351198
 Ene=   0.46036430225626E+00
 Spin= Alpha
 Occup=    0.000000
   1      0.001113313496
   2      0.000532355681
   3     -0.009300337656
   4     -0.017540175976
   5      0.012661580435
   6      0.046466338592
   7     -0.053597888636
   8      0.055145690824
   9     -0.020087487779
  10     -0.093431083186
  11     -0.023139993890
  12     -0.044653167182
  13      0.069929938690
  14      0.010983318025
  15      0.032254709258
  16      0.441366218483
  17      0.125959567379
  18      0.219406670365
  19     -0.733512751660
  20     -0.220561175039
  21     -0.375943901635
  22      0.077022574453
  23      0.011188506877
  24      0.032483545580
  25      0.049592898973
  26     -0.035398096083
  27     -0.167883480932
  28     -0.030396057164
  29     -0.064853476007
  30     -0.110826198728
  31      0.079810921210
  32      0.384761292902
  33      0.223367857716
  34      0.241340474176
  35     -0.003703112690
  36      0.000554444144
  37      0.001974411081
  38      0.000870732446
  39      0.001505422076
  40      0.001985633650
  41      0.007289829042
  42     -0.001996921582
  43      0.000218970541
  44      0.080550761240
  45      0.031958845945
  46      0.051260911388
  47      0.070636654112
  48     -0.113682654922
  49     -0.086195163770
  50     -0.029408321250
  51      0.013022492783
  52     -0.011045919009
  53      0.002583231114
  54     -0.004810189615
  55      0.000645477586
  56      0.005477603792
  57     -0.020706442283
  58     -0.122868744813
  59      0.034890878359
  60      0.088394705262
  61      0.031706524046
  62     -0.106182177953
  63     -0.054744779496
  64     -0.084372597352
  65      0.004735232126
  66     -0.002700032278
  67      0.016844554254
  68      0.023645284115
  69      0.017093147929
  70      0.030248081684
  71     -0.004729638753
  72      0.008131945055
  73     -0.017357699713
  74     -0.011338040940
 Ene=   0.49330911049793E+00
 Spin= Alpha
 Occup=    0.000000
   1     -0.000036250706
   2     -0.000016910053
   3      0.000258283794