[Molden Format]
[Atoms] (AU)
NI   1   28          -0.9902780674         0.6614403704        -0.1549977786
C    2    6           1.8261682880        -1.3279197774         1.6080079396
C    3    6           2.2022957966        -1.3629061162        -0.9773589219
H    4    1           2.8533003317        -0.0019829452         2.8224274924
H    5    1           0.9404398731        -2.9246573493         2.5846681936
H    6    1           1.6270116515        -2.9898408920        -2.1220757223
H    7    1           3.5396625120        -0.0675571378        -1.8839224323
[GTO]
  1 0
 s    6  1.00
    71074.8032110000         0.0014260387
    10672.0209410000         0.0109282370
     2428.1389007000         0.0542126269
      685.5359514800         0.1887476890
      223.1007286300         0.3832461698
       76.8420140420         0.2955063714
 s    3  1.00
      148.7112201600        -0.1101444306
       17.4591549870         0.6452142699
        7.1625280665         0.4479783810
 s    3  1.00
       12.5561371250        -0.2264540322
        2.0735740488         0.7232095929
        0.8538264060         0.4486802648
 s    1  1.00
        0.1053676627         1.0000000000
 s    1  1.00
        0.0381340877         1.0000000000
 p    5  1.00
      916.7360866200         0.0093439636
      216.0613991300         0.0697373749
       68.3839148170         0.2707349501
       24.5938439520         0.5307830155
        9.1392960204         0.3441022944
 p    3  1.00
        4.7193371746         0.3407608202
        1.8161849234         0.5658016961
        0.6784075072         0.2361671736
 p    1  1.00
        0.1465880000         1.0000000000
 d    4  1.00
       47.0938321080         0.0289823169
       13.1464639750         0.1549499595
        4.4170548925         0.3763311511
        1.4771565078         0.4736509601
 d    1  1.00
        0.4373592179         1.0000000000
 f    1  1.00
        2.1740000000         1.0000000000

  2 0
 s    5  1.00
     1238.4016938000         0.0054568832
      186.2900499200         0.0406384092
       42.2511763460         0.1802559389
       11.6765579320         0.4631512175
        3.5930506482         0.4408717331
 s    1  1.00
        0.4024514736         1.0000000000
 s    1  1.00
        0.1309018267         1.0000000000
 p    3  1.00
        9.4680970621         0.0383878717
        2.0103545142         0.2111702511
        0.5477100471         0.5132817211
 p    1  1.00
        0.1526861379         1.0000000000
 d    1  1.00
        0.8000000000         1.0000000000

  3 0
 s    5  1.00
     1238.4016938000         0.0054568832
      186.2900499200         0.0406384092
       42.2511763460         0.1802559389
       11.6765579320         0.4631512175
        3.5930506482         0.4408717331
 s    1  1.00
        0.4024514736         1.0000000000
 s    1  1.00
        0.1309018267         1.0000000000
 p    3  1.00
        9.4680970621         0.0383878717
        2.0103545142         0.2111702511
        0.5477100471         0.5132817211
 p    1  1.00
        0.1526861379         1.0000000000
 d    1  1.00
        0.8000000000         1.0000000000

  4 0
 s    3  1.00
       13.0107010000         0.0196821580
        1.9622572000         0.1379652400
        0.4445379600         0.4783193500
 s    1  1.00
        0.1219496200         1.0000000000
 p    1  1.00
        0.8000000000         1.0000000000

  5 0
 s    3  1.00
       13.0107010000         0.0196821580
        1.9622572000         0.1379652400
        0.4445379600         0.4783193500
 s    1  1.00
        0.1219496200         1.0000000000
 p    1  1.00
        0.8000000000         1.0000000000

  6 0
 s    3  1.00
       13.0107010000         0.0196821580
        1.9622572000         0.1379652400
        0.4445379600         0.4783193500
 s    1  1.00
        0.1219496200         1.0000000000
 p    1  1.00
        0.8000000000         1.0000000000

  7 0
 s    3  1.00
       13.0107010000         0.0196821580
        1.9622572000         0.1379652400
        0.4445379600         0.4783193500
 s    1  1.00
        0.1219496200         1.0000000000
 p    1  1.00
        0.8000000000         1.0000000000

[5D7F]
[9G]

[MO]
 Sym= A
 Ene=        -3.0012031718e+02
 Spin= Alpha
 Occup=         1.0000000000e+00
  1         9.9540131174e-01
  2         1.4670574850e-02
  3        -3.2225392915e-03
  4         2.2945666633e-03
  5        -7.6799951230e-04
  6         1.1656162111e-05
  7        -7.7887636339e-06
  8         1.8253190769e-06
  9        -4.4187306894e-05
 10         2.9523792819e-05
 11        -6.9035207458e-06
 12         7.0618490544e-04
 13        -4.7173958724e-04
 14         1.1027096055e-04
 15         1.8245564692e-05
 16        -9.1862320768e-06
 17         8.5446179528e-06
 18        -2.4107187570e-05
 19         5.7474852913e-05
 20        -7.9519498926e-05
 21         3.8511178793e-05
 22        -3.4457160327e-05
 23         9.6594118466e-05
 24        -2.3055082312e-04
 25        -1.9206876968e-07
 26        -4.7739697750e-07
 27         2.2577195247e-07
 28         2.5169779674e-08
 29        -1.0349665792e-06
 30        -9.7366509134e-07
 31        -5.2192785866e-06
 32        -2.4537104996e-06
 33         2.4824275747e-04
 34        -1.0440147299e-03
 35         2.3400343399e-05
 36        -1.6764682410e-05
 37         1.7835464409e-05
 38         3.7849527977e-04
 39        -2.5226174192e-04
 40         5.3469987258e-05
 41         2.7953996960e-05
 42        -4.2490484940e-05
 43         2.9565829458e-05
 44        -2.4235749709e-05
 45         6.4517533980e-05
 46        -2.3361075913e-06
 47         2.4680077714e-04
 48        -1.0329171177e-03
 49         2.8074926644e-05
 50        -1.7561553590e-05
 51        -9.8231441676e-06
 52         3.7630575089e-04
 53        -2.5228413348e-04
 54         7.0320339746e-05
 55         4.3944029683e-05
 56         1.3433623524e-05
 57        -8.6123604418e-06
 58        -3.2276871642e-05
 59         7.1396631463e-05
 60         6.2287162662e-05
 61         2.1983117346e-04
 62        -1.7631986565e-05
 63         1.7639950353e-05
 64        -1.5336029433e-06
 65         6.2276935414e-05
 66         2.2003501276e-04
 67        -2.3139832342e-05
 68         9.4363749614e-06
 69        -2.2679864249e-06
 70         6.2002287578e-05
 71         2.1938895239e-04
 72        -2.2410699337e-05
 73         9.3030796553e-06
 74        -5.0747225979e-06
 75         6.2036475128e-05
 76         2.1932435163e-04
 77        -1.7050225173e-05
 78         1.7332805222e-05
 79        -4.4450378977e-06
 Sym= A
 Ene=        -3.5883913681e+01
 Spin= Alpha
 Occup=         1.0000000000e+00
  1         3.3819426903e-01
  2        -1.0449698050e+00
  3        -1.7721130812e-02
  4         7.3009873812e-03
  5        -2.5186670517e-03
  6        -2.1622803081e-05
  7         1.4527094441e-05
  8        -3.5298317879e-06
  9        -1.6856212005e-04
 10         1.1262601344e-04
 11        -2.6404170739e-05
 12         2.0717623910e-03
 13        -1.3840113780e-03
 14         3.2397487514e-04
 15         2.5573418985e-04
 16        -5.6468922195e-05
 17        -1.1351489372e-05
 18         5.9659135289e-05
 19        -1.3012408099e-04
 20        -2.8921824771e-04
 21         1.2024867301e-04
 22        -8.9114510344e-05
 23         2.4104479873e-04
 24        -5.7905340315e-04
 25        -8.9480065272e-07
 26        -2.2019051610e-06
 27         1.3642676104e-06
 28         3.6274937771e-07
 29        -2.0020189760e-06
 30        -1.6612880121e-06
 31        -8.7331587351e-06
 32        -4.6137053116e-06
 33         6.8223354802e-04
 34        -3.0630675665e-03
 35         7.6334012849e-05
 36        -5.4751916707e-05
 37         5.8913845297e-05
 38         1.1044852498e-03
 39        -7.3351860071e-04
 40         1.2633490052e-04
 41         8.1317495135e-05
 42        -1.1591206585e-04
 43         7.9693537321e-05
 44        -6.4838519948e-05
 45         1.7297670155e-04
 46        -4.2755546900e-06
 47         6.7734788710e-04
 48        -3.0251906888e-03
 49         9.1463765544e-05
 50        -5.7153782161e-05
 51        -3.2761787024e-05
 52         1.0883081622e-03
 53        -7.3226506815e-04
 54         2.3549325078e-04
 55         1.2425431225e-04
 56         3.4500329355e-05
 57        -2.3051231567e-05
 58        -8.6374654442e-05
 59         1.9127096308e-04
 60         1.8290655417e-04
 61         6.6410627561e-04
 62        -4.6150892429e-05
 63         4.1615234918e-05
 64         2.9246519728e-06
 65         1.8295713358e-04
 66         6.6491732208e-04
 67        -5.6963179303e-05
 68         2.5769272711e-05
 69         1.3886764018e-06
 70         1.8201033318e-04
 71         6.6265438529e-04
 72        -5.2827680990e-05
 73         2.5195871430e-05
 74        -1.9442574847e-05
 75         1.8208405942e-04
 76         6.6243884712e-04
 77        -4.2539288038e-05
 78         4.0402032389e-05
 79        -1.8291741783e-05
 Sym= A
 Ene=        -3.1293657806e+01
 Spin= Alpha
 Occup=         1.0000000000e+00
  1        -1.6678397886e-08
  2         5.0086390418e-08
  3         1.1375702116e-09
  4         6.1900366770e-07
  5        -7.2392231763e-07
  6         5.4308288734e-01
  7         8.2865765784e-01
  8         6.8026328675e-02
  9         1.0274158012e-02
 10         1.5676612343e-02
 11         1.2869392717e-03
 12        -1.4912802365e-03
 13        -2.2753864362e-03
 14        -1.8686347568e-04
 15         7.4852646140e-07
 16         6.3226951819e-06
 17         3.4730533276e-06
 18         4.5149678148e-05
 19         1.9173789705e-05
 20        -2.0040399455e-06
 21        -1.7019168787e-05
 22        -9.2957609641e-06
 23        -1.2200085808e-04
 24        -5.1855385962e-05
 25        -1.5277317091e-05
 26        -4.9076431623e-05
 27        -7.4801475371e-05
 28        -8.3916788182e-06
 29         1.8185889225e-05
 30        -1.1877924897e-04
 31         2.0375101237e-05
 32        -3.2428386399e-08
 33         4.5244829357e-07
 34        -1.9710838404e-06
 35        -1.9070654701e-05
 36        -2.9005708314e-05
 37        -2.4214322368e-06
 38         1.0845379346e-04
 39         1.6558253989e-04
 40         1.3326155737e-05
 41        -3.5721555631e-06
 42        -2.2169639639e-05
 43        -2.1249390454e-05
 44        -9.3573707697e-05
 45        -3.8675681635e-05
 46        -3.2858800060e-08
 47         4.4133892262e-07
 48        -1.2565495192e-06
 49        -1.9044457309e-05
 50        -2.8963206552e-05
 51        -2.3440959849e-06
 52         1.0652673127e-04
 53         1.6233130899e-04
 54         1.3870441286e-05
 55         4.4596919268e-07
 56        -4.0584719005e-06
 57         7.0581399006e-06
 58        -9.6824892478e-05
 59        -4.2536938464e-05
 60        -1.0278912154e-04
 61         2.6240531545e-04
 62        -7.9503018667e-05
 63        -5.2259244699e-06
 64        -3.6454240932e-05
 65         1.0300993896e-04
 66        -2.6037043460e-04
 67         2.4332951866e-05
 68        -7.8430890365e-05
 69         2.9349644736e-05
 70         1.0212072178e-04
 71        -2.6342724663e-04
 72         3.1806348022e-05
 73        -7.9672551617e-05
 74        -1.9398459692e-05
 75        -1.0184481343e-04
 76         2.6488798846e-04
 77        -8.7193643534e-05
 78        -4.4554200835e-06
 79         1.2571526202e-05
 Sym= A
 Ene=        -3.1274462654e+01
 Spin= Alpha
 Occup=         1.0000000000e+00
  1        -5.5093723078e-05
  2         1.5800206434e-04
  3        -3.3384868939e-04
  4         1.4499440364e-03
  5         1.0823835922e-03
  6        -8.1715944307e-01
  7         5.4697646058e-01
  8        -1.3922385055e-01
  9        -1.5416810212e-02
 10         1.0319225015e-02
 11        -2.6248485694e-03
 12         3.8947698991e-03
 13        -2.6051378408e-03
 14         6.4649856233e-04
 15         5.6828260931e-05
 16        -2.9644927644e-05
 17         2.6731345905e-05
 18        -7.2220951249e-05
 19         1.7262829235e-04
 20        -2.1754492332e-04
 21         1.0689146028e-04
 22        -9.1895371786e-05
 23         2.4749680889e-04
 24        -5.9237985746e-04
 25         4.1066841153e-06
 26         9.6234992242e-06
 27        -7.2232375096e-06
 28        -2.5194892710e-06
 29        -1.7477999753e-06
 30        -3.4443534635e-06
 31        -1.9775230302e-05
 32         4.3590103983e-05
 33        -1.4526353558e-04
 34        -1.0711315794e-03
 35         1.8645888523e-04
 36        -1.3566143224e-04
 37         1.6605875974e-04
 38         7.0396973950e-04
 39        -4.7203177304e-04
 40         1.5960407214e-04
 41         8.9997507418e-05
 42        -8.3906558001e-05
 43         5.2544481066e-05
 44        -4.2883119341e-05
 45         1.1516643399e-04
 46         4.3924544337e-05
 47        -1.5483961353e-04
 48        -1.0210566858e-03
 49         2.2599261068e-04
 50        -1.3966331286e-04
 51        -1.0146511960e-04
 52         6.9741919082e-04
 53        -4.6265817766e-04
 54         6.8966683954e-05
 55         1.1445641659e-04
 56         1.2288936928e-05
 57        -1.3374595898e-05
 58        -5.5406390594e-05
 59         1.2406393493e-04
 60         1.6552469994e-04
 61        -4.6280443712e-04
 62         6.2078108654e-05
 63        -1.6879130022e-05
 64         8.9997349319e-05
 65         1.6646070492e-04
 66        -4.6042112141e-04
 67         3.3539714436e-05
 68        -5.9780653681e-05
 69         8.5914044893e-05
 70         1.6231852929e-04
 71        -4.6049993082e-04
 72         5.8205077360e-05
 73        -6.2030092598e-05
 74        -7.0200484863e-05
 75         1.6210868540e-04
 76        -4.6079318756e-04
 77         8.5550810367e-05
 78        -2.0750216692e-05
 79        -6.7056602310e-05
 Sym= A
 Ene=        -3.1271714221e+01
 Spin= Alpha
 Occup=         1.0000000000e+00
  1        -5.6774301341e-07
  2         1.5986831317e-06
  3        -3.7376318683e-06
  4         1.7063002004e-05
  5         1.3050043927e-05
  6        -1.5364600000e-01
  7         2.0161494927e-02
  8         9.8102512101e-01
  9        -2.8710628647e-03
 10         3.7752975302e-04
 11         1.8322058372e-02
 12         4.9091838200e-04
 13        -7.3095749898e-05
 14        -3.0298098006e-03
 15         2.9730021771e-05
 16         1.0459379000e-04
 17        -7.1218896817e-05
 18        -1.5582631475e-05
 19         1.4065581354e-05
 20        -7.7547773779e-05
 21        -2.7051741499e-04
 22         1.8416221525e-04
 23         4.0989338143e-05
 24        -3.7960000136e-05
 25        -7.2712362791e-06
 26         3.2898840395e-07
 27         4.2068615841e-06
 28        -8.9872727572e-06
 29         2.0375129877e-05
 30         1.1924938086e-06
 31        -4.2247514822e-06
 32         5.0390248173e-06
 33        -8.2630964489e-05
 34        -3.8550380403e-04
 35        -2.0004948485e-05
 36         1.3358147859e-05
 37        -2.7563065273e-06
 38        -6.6172420555e-04
 39         3.8347210727e-04
 40         5.8605067314e-04
 41        -1.1249638564e-04
 42        -6.5994720430e-06
 43         1.3773823717e-05
 44         3.2199357103e-05
 45        -7.1515489070e-05
 46        -3.9862479371e-06
 47         7.7263969510e-05
 48         3.6459508544e-04
 49         2.5284793873e-05
 50        -1.6657915890e-05
 51         1.2451057302e-06
 52         4.8114508443e-04
 53        -3.7584846900e-04
 54         7.6298886870e-04
 55         9.3837891325e-05
 56        -6.9257653777e-05
 57         3.7579981245e-05
 58        -2.2615589419e-05
 59         6.5389311531e-05
 60        -9.6630694881e-05
 61         1.8659177863e-04
 62         6.8464278997e-06
 63        -1.1671122341e-05
 64        -8.6037226306e-05
 65        -9.7304507429e-05
 66         1.8477787396e-04
 67         1.9946665658e-05
 68         7.8879923435e-06
 69        -8.4197132974e-05
 70         1.0056705686e-04
 71        -1.9733847800e-04
 72         6.7203391096e-06
 73        -1.2135600369e-05
 74        -8.7842907071e-05
 75         1.0021244981e-04
 76        -1.9918991786e-04
 77         2.0665472390e-05
 78         8.5901834736e-06
 79        -8.6310650474e-05
 Sym= A
 Ene=        -1.0256436671e+01
 Spin= Alpha
 Occup=         1.0000000000e+00
  1         1.8648810812e-06
  2        -1.9609132022e-05
  3        -2.3046837354e-05
  4         9.5419950050e-03
  5        -1.4337024760e-03
  6        -6.4973074661e-05
  7         4.3309762156e-05
  8        -9.9224447949e-06
  9         2.3765850866e-04
 10        -1.5842292344e-04
 11         3.6007502190e-05
 12         4.3828867329e-03
 13        -2.9219090469e-03
 14         6.0086038250e-04
 15        -9.2737875678e-05
 16         3.6241076992e-05
 17        -2.7093127475e-05
 18         7.7465191640e-05
 19        -1.8533571631e-04
 20         1.5724030128e-04
 21        -6.3194897014e-05
 22         4.1329216573e-05
 23        -1.0298641898e-04
 24         2.4849661933e-04
 25         5.7705019928e-06
 26         1.7128647834e-05
 27        -1.0964059469e-05
 28        -2.4731632028e-06
 29         1.0803022644e-05
 30         9.3916834936e-06
 31         4.9572708335e-05
 32         6.7804078412e-01
 33         3.1877898530e-02
 34        -2.1984329076e-02
 35        -6.2182097594e-04
 36         2.5879944633e-04
 37         1.8239193335e-03
 38         2.7619635324e-03
 39        -1.8388007981e-03
 40         2.7905161920e-04
 41        -2.6607159177e-04
 42         1.8634455267e-04
 43         1.5103340037e-05
 44        -4.9859057726e-04
 45         1.1168034375e-03
 46         7.1957307209e-01
 47         3.4060212911e-02
 48        -2.4463817740e-02
 49        -7.9519218356e-05
 50         2.0307634291e-04
 51        -1.8475913541e-03
 52         2.8449615315e-03
 53        -1.8752563659e-03
 54         1.8595974339e-04
 55        -2.7310308527e-04
 56        -2.4476813267e-04
 57         3.0176714429e-04
 58        -4.7948775358e-04
 59         1.1617330979e-03
 60        -2.0885930357e-03
 61         5.5574717786e-03
 62         7.0162743780e-04
 63         1.3331458999e-03
 64         4.4364207934e-04
 65        -2.0919924703e-03
 66         5.5521138554e-03
 67        -9.6670215100e-04
 68        -1.2153151930e-03
 69         2.3721475699e-04
 70        -2.2429226935e-03
 71         5.9044361888e-03
 72        -9.0601495363e-04
 73        -1.3281751976e-03
 74        -5.3706063822e-04
 75        -2.2434753094e-03
 76         5.9012014434e-03
 77         8.8698665172e-04
 78         1.4103269023e-03
 79        -3.1404519342e-04
 Sym= A
 Ene=        -1.0255864226e+01
 Spin= Alpha
 Occup=         1.0000000000e+00
  1        -9.6484981730e-08
  2        -3.2363022440e-07
  3        -3.4398458311e-06
  4         2.7325000215e-04
  5        -3.6939288758e-05
  6        -9.4314508499e-07
  7         1.1555105655e-06
  8        -6.6593731424e-06
  9         2.2219536069e-06
 10        -3.9899341844e-06
 11         3.1272032161e-05
 12        -2.5396312769e-04
 13        -5.0337957346e-05
 14         2.6481126789e-03
 15         1.3994134344e-05
 16         6.0728763877e-05
 17        -4.1335650504e-05
 18        -6.4462597753e-06
 19         2.2253997757e-06
 20         4.4130914349e-05
 21         1.4585586829e-04
 22        -9.9945371394e-05
 23        -2.1613256369e-05
 24         1.9304534530e-05
 25         2.5323620725e-05
 26        -1.3636658673e-05
 27         8.9093957356e-06
 28        -1.4351219627e-05
 29         3.6230181463e-05
 30         2.3120137924e-06
 31        -5.8640645817e-06
 32         7.1909389610e-01
 33         3.7518798036e-02
 34        -4.0804984423e-02
 35         3.0747591808e-04
 36        -9.1890811371e-05
 37        -1.3287432921e-03
 38         2.1536515238e-07
 39        -5.1627317854e-04
 40         6.2734883323e-03
 41         1.7881358779e-03
 42        -2.9920834000e-04
 43         8.3155294559e-05
 44        -6.7608968722e-04
 45         1.5987895710e-03
 46        -6.7753162357e-01
 47        -3.5558921838e-02
 48         3.9435938949e-02
 49         7.7360869859e-05
 50         6.9933919210e-05
 51        -1.4758201245e-03
 52        -1.6163189116e-03
 53         5.6922307022e-04
 54         6.0113921888e-03
 55        -1.6637966130e-03
 56         8.0962290039e-04
 57        -4.2269904627e-04
 58         5.7458149404e-04
 59        -1.4707036958e-03
 60        -2.6811947984e-03
 61         5.9916833336e-03
 62         1.0821706942e-03
 63         1.5267805074e-03
 64         1.2271337198e-03
 65        -2.6829844750e-03
 66         5.9912275381e-03
 67        -1.0478754367e-03
 68        -1.7277863788e-03
 69         9.6195595287e-04
 70         2.5510564011e-03
 71        -5.6541233651e-03
 72         6.8163750849e-04
 73         1.6813532330e-03
 74         1.1439440922e-03
 75         2.5503802676e-03
 76        -5.6558543276e-03
 77        -1.3442279292e-03
 78        -1.4138181718e-03
 79         8.9122441838e-04
 Sym= A
 Ene=        -4.0778528675e+00
 Spin= Alpha
 Occup=         1.0000000000e+00
  1         1.2713632978e-01
  2        -4.7349087267e-01
  3         1.0846973559e+00
  4         2.0923456308e-02
  5        -7.4183135849e-03
  6        -8.8385217013e-04
  7         5.9011918964e-04
  8        -1.4033484271e-04
  9         2.2100739343e-03
 10        -1.4755439335e-03
 11         3.5106975396e-04
 12         2.1818460903e-03
 13        -1.4577289515e-03
 14         3.4314977300e-04
 15        -4.8385526968e-03
 16         7.9823625816e-04
 17         6.9821293436e-04
 18        -2.5834836665e-03
 19         5.8870165381e-03
 20        -6.4762596516e-04
 21         2.0573649726e-04
 22        -8.5546923613e-05
 23         1.9556509692e-04
 24        -4.8637290047e-04
 25         1.0467552924e-07
 26        -1.5599121819e-07
 27        -9.9256679533e-07
 28        -9.0422963963e-07
 29        -9.1929780112e-06
 30        -9.5505421096e-06
 31        -5.2054542326e-05
 32        -2.4000560103e-04
 33         4.7583562560e-04
 34        -3.5570257885e-03
 35        -2.5685782691e-04
 36         1.7680239308e-04
 37        -1.0445686979e-04
 38         1.1324746427e-03
 39        -7.1054549393e-04
 40        -3.4581531674e-04
 41        -2.7363301905e-05
 42         1.8426523375e-04
 43        -1.4247465285e-04
 44         1.1173360909e-04
 45        -2.9645568446e-04
 46        -2.4219296537e-04
 47         4.7151224712e-04
 48        -3.4925885379e-03
 49        -2.7919884345e-04
 50         1.8121390541e-04
 51         2.1968643155e-05
 52         9.7178209265e-04
 53        -6.9484238635e-04
 54         7.0654497357e-04
 55        -1.0865505233e-04
 56        -1.0272694940e-04
 57         5.2468384402e-05
 58         1.5344215638e-04
 59        -3.3262636032e-04
 60         1.6742369976e-04
 61         1.1047573314e-03
 62         2.0311563111e-05
 63        -1.3069947067e-04
 64         8.5523651655e-05
 65         1.6867332900e-04
 66         1.1085835330e-03
 67         1.2041498362e-04
 68         2.3852032623e-05
 69         9.7255205605e-05
 70         1.6657619936e-04
 71         1.1041203875e-03
 72         1.4583126732e-04
 73         2.1395774352e-05
 74        -6.0597060017e-05
 75         1.6643597232e-04
 76         1.1036341518e-03
 77         4.4342981668e-05
 78        -1.3487951383e-04
 79        -7.3557060499e-05
 Sym= A
 Ene=        -2.6846801884e+00
 Spin= Alpha
 Occup=         1.0000000000e+00
  1         2.1082175110e-07
  2        -7.6171932906e-07
  3         1.9444066017e-06
  4        -5.7791105838e-07
  5        -3.2700712302e-07
  6         2.2116580713e-01
  7         3.3745331876e-01
  8         2.7697376541e-02
  9        -5.8539320251e-01
 10        -8.9318907381e-01
 11        -7.3310874968e-02
 12        -4.0642323722e-03
 13        -6.2000602465e-03
 14        -5.0879461592e-04
 15        -1.3499654971e-05
 16        -1.1324568148e-04
 17        -6.3725053428e-05
 18        -8.0133012017e-04
 19        -3.4028475926e-04
 20        -6.9682558069e-06
 21        -6.0585485276e-05
 22        -3.3727875822e-05
 23        -4.3215656848e-04
 24        -1.8384269535e-04
 25         6.7270022108e-04
 26         2.1536772168e-03
 27         3.2993145327e-03
 28         2.7387290605e-04
 29        -7.9409193707e-04
 30         4.7148318026e-03
 31        -8.0183026606e-04
 32         3.1147293829e-07
 33        -4.6605269252e-08
 34        -2.9250034010e-06
 35        -1.4262183396e-04
 36        -2.1877091854e-04
 37        -1.7627966139e-05
 38        -1.7899981994e-04
 39        -2.7350356816e-04
 40        -2.1508876813e-05
 41         1.0632777224e-05
 42         6.6154313526e-05
 43         6.2420654521e-05
 44         2.8797583477e-04
 45         1.1896736660e-04
 46         1.3364696926e-07
 47        -6.7972990387e-08
 48         1.5629910389e-06
 49        -1.4416165245e-04
 50        -2.2032893768e-04
 51        -1.8135730465e-05
 52        -1.8353432317e-04
 53        -2.7991788498e-04
 54        -2.1808478167e-05
 55        -8.2930430623e-07
 56         1.4896024464e-05
 57        -1.8136798518e-05
 58         2.9897556655e-04
 59         1.3084810166e-04
 60         4.9332647462e-05
 61         5.5822811077e-04
 62        -8.1582660824e-05
 63         6.2870891840e-05
 64        -7.7116701564e-05
 65        -4.9036410972e-05
 66        -5.5675062766e-04
 67         8.4447971025e-05
 68        -5.8436699321e-05
 69         7.7277212440e-05
 70        -5.0331619811e-05
 71        -5.6123587755e-04
 72         1.0322908673e-04
 73        -6.0020764724e-05
 74        -4.8330294449e-05
 75         5.0360837801e-05
 76         5.6174541355e-04
 77        -9.9880956215e-05
 78         6.4993576953e-05
 79         4.8760761871e-05
 Sym= A
 Ene=        -2.6434226964e+00
 Spin= Alpha
 Occup=         1.0000000000e+00
  1        -3.6858610788e-04
  2         1.3635830126e-03
  3        -3.3406205947e-03
  4         2.9490673970e-04
  5         1.3690569131e-03
  6        -3.3258100336e-01
  7         2.2248161828e-01
  8        -5.4934802371e-02
  9         8.8076593779e-01
 10        -5.8919245411e-01
 11         1.4548192808e-01
 12         8.2506059529e-03
 13        -5.5171766782e-03
 14         1.3458847238e-03
 15        -7.9291598303e-04
 16         3.7374710193e-04
 17        -3.1251439636e-04
 18         8.4675900324e-04
 19        -2.0266459438e-03
 20        -2.8449819816e-04
 21         1.2340342281e-04
 22        -9.7913506261e-05
 23         2.7029076725e-04
 24        -6.4639639668e-04
 25        -1.1108336472e-04
 26        -2.4191560526e-04
 27         1.8159522093e-04
 28         6.5303236126e-05
 29         3.0735843446e-05
 30         7.8476065842e-05
 31         4.5431519145e-04
 32        -1.2705178937e-03
 33         1.7069197913e-03
 34        -2.1613598245e-04
 35        -1.7953196562e-03
 36         1.2690528358e-03
 37        -1.1398129733e-03
 38         2.3722017295e-04
 39        -1.5477148913e-04
 40         2.0717576178e-05
 41        -1.5394334874e-04
 42         6.0971991384e-04
 43        -4.4040081894e-04
 44         2.5866803898e-04
 45        -7.2252015020e-04
 46        -1.2738620708e-03
 47         1.7180878690e-03
 48        -2.6591671366e-04
 49        -2.0437129313e-03
 50         1.2939796817e-03
 51         5.4707262485e-04
 52         2.3620936121e-04
 53        -1.5824272436e-04
 54         3.6391823560e-05
 55        -4.1388382283e-04
 56        -3.4388683907e-04
 57         2.0883278832e-04
 58         3.9127397746e-04
 59        -8.2929381846e-04
 60         9.8977567884e-05
 61        -6.9111053291e-04
 62         5.1411782701e-05
 63        -1.2810311427e-04
 64         5.6398940143e-05
 65         9.9624067660e-05
 66        -6.8866729245e-04
 67         1.3311539926e-04
 68        -2.9824667381e-06
 69         6.6346463838e-05
 70         9.9824765160e-05
 71        -6.8217884447e-04
 72         1.4502452967e-04
 73        -3.5078995286e-06
 74        -2.4784099724e-05
 75         9.9928657552e-05
 76        -6.8215100597e-04
 77         6.3413010151e-05
 78        -1.2827653748e-04
 79        -3.4935466662e-05
 Sym= A
 Ene=        -2.6352750147e+00
 Spin= Alpha
 Occup=         1.0000000000e+00
  1        -2.1427812783e-06
  2         7.8284525518e-06
  3        -1.9941747924e-05
  4         1.8517927017e-06
  5         1.2850581814e-05
  6        -6.1098549736e-02
  7         7.2656225700e-03
  8         3.9935545248e-01
  9         1.6181108584e-01
 10        -1.9242220612e-02
 11        -1.0576353633e+00
 12         1.2443059843e-03
 13        -1.5594432661e-04
 14        -8.0338268059e-03
 15        -2.1729966242e-04
 16        -7.5175585987e-04
 17         5.1182827918e-04
 18         1.1168203232e-04
 19        -9.9988813742e-05
 20        -6.5391379982e-05
 21        -2.2413710567e-04
 22         1.5228931458e-04
 23         3.4415822069e-05
 24        -3.2179583433e-05
 25         1.2453288095e-03
 26        -4.3760218550e-04
 27        -6.7555864019e-06
 28         1.6077248976e-04
 29        -2.6000445575e-04
 30        -1.7491292501e-05
 31         5.4371027913e-05
 32         4.7081180749e-04
 33        -4.6572844155e-04
 34        -4.6870175695e-03
 35         1.0168640315e-03
 36        -6.8304717469e-04
 37         2.1175910061e-04
 38        -2.6644016148e-05
 39        -1.4572137413e-04
 40         1.9545971765e-03
 41         2.9273987426e-04
 42        -1.9985034903e-04
 43         1.2229606249e-04
 44        -1.4616414022e-04
 45         3.7561659829e-04
 46        -4.9314111294e-04
 47         4.9795185966e-04
 48         4.6858243044e-03
 49        -1.0682137995e-03
 50         7.0785501935e-04
 51        -1.0072203455e-04
 52        -5.2586535661e-04
 53         1.9423108503e-04
 54         1.8738380533e-03
 55        -3.4845810709e-04
 56         2.0305268319e-05
 57        -3.9555898166e-07
 58         1.7684941330e-04
 59        -4.0921733205e-04
 60         9.0321531684e-05
 61         6.1606582565e-04
 62        -7.0381842113e-05
 63         9.9561849604e-05
 64        -1.0287361678e-04
 65         8.9235123543e-05
 66         6.1351785848e-04
 67        -1.1146189958e-04