[Molden Format]
[Title]
generated by TRESC, imaginary part1 of MOs of job CO3
 
[Atoms] AU
 C   1   6    0.3364484192    5.8882927452    0.3891081484
 O   2   8    2.6974300312    5.9862747024    0.4085979628
 O   3   8   -0.7714112401    7.4618585764    1.8371371576
 O   4   8   -0.6184572465    4.2284969646   -1.0743142370
[GTO]
  1 0
 s  5 1.0
     1238.4016938000        0.0059599745
      186.2900499200        0.0422621111
       42.2511763500        0.1866575214
       11.6765579300        0.4675815865
        3.5930506500        0.4422897287
 s  1 1.0
        0.4024514700        1.0000000000
 s  1 1.0
        0.1309018300        1.0000000000
 p  3 1.0
        9.4680970600        0.0570294585
        2.0103545100        0.3130471495
        0.5477100500        0.7605135301
 p  1 1.0
        0.1526861400        1.0000000000
 d  1 1.0
        0.8000000000        1.0000000000
 
  2 0
 s  5 1.0
     2266.1767785000        0.0060711540
      340.8701019100        0.0417308970
       77.3631351700        0.1850777598
       21.4796449400        0.4668774046
        6.6589433100        0.4435718061
 s  1 1.0
        0.8097597600        1.0000000000
 s  1 1.0
        0.2553077200        1.0000000000
 p  3 1.0
       17.7215043200        0.0628680198
        3.8635505400        0.3334973703
        1.0480920900        0.7412421661
 p  1 1.0
        0.2764154400        1.0000000000
 d  1 1.0
        1.2000000000        1.0000000000
 
  3 0
 s  5 1.0
     2266.1767785000        0.0060711540
      340.8701019100        0.0417308970
       77.3631351700        0.1850777598
       21.4796449400        0.4668774046
        6.6589433100        0.4435718061
 s  1 1.0
        0.8097597600        1.0000000000
 s  1 1.0
        0.2553077200        1.0000000000
 p  3 1.0
       17.7215043200        0.0628680198
        3.8635505400        0.3334973703
        1.0480920900        0.7412421661
 p  1 1.0
        0.2764154400        1.0000000000
 d  1 1.0
        1.2000000000        1.0000000000
 
  4 0
 s  5 1.0
     2266.1767785000        0.0060711540
      340.8701019100        0.0417308970
       77.3631351700        0.1850777598
       21.4796449400        0.4668774046
        6.6589433100        0.4435718061
 s  1 1.0
        0.8097597600        1.0000000000
 s  1 1.0
        0.2553077200        1.0000000000
 p  3 1.0
       17.7215043200        0.0628680198
        3.8635505400        0.3334973703
        1.0480920900        0.7412421661
 p  1 1.0
        0.2764154400        1.0000000000
 d  1 1.0
        1.2000000000        1.0000000000
 
[5D]
[7F]
[9G]
[MO]
 Ene=  -0.19825682835469E+02
 Spin= Alpha
 Occup=    0.999999
   1      0.000302340261
   2      0.000551759723
   3      0.011048662739
   4     -0.000151563732
   5     -0.000006854411
   6     -0.000001918799
   7      0.012879613728
   8      0.000535982398
   9      0.000107690106
  10      0.000913992243
  11     -0.000048864247
  12      0.000515610629
  13     -0.001686926197
  14     -0.000145293731
  15      0.987905629961
  16      0.043992601890
  17     -0.032689655268
  18     -0.003027265798
  19     -0.000125711358
  20     -0.000025334138
  21      0.007483934286
  22      0.000310550373
  23      0.000061993524
  24     -0.000110076008
  25     -0.000009971438
  26      0.000287899174
  27      0.000128425112
  28      0.000007585722
  29     -0.004438011793
  30     -0.001288696767
  31      0.001930170632
  32     -0.000026065533
  33      0.000392369855
  34      0.000353954192
  35     -0.001671407442
  36     -0.001487287236
  37     -0.001289841783
  38     -0.000023611614
  39      0.000206904419
  40      0.000235789309
  41     -0.000022769714
  42      0.000237069826
  43     -0.004566273987
  44     -0.001289793087
  45      0.001937451038
  46      0.000012109280
  47     -0.000392549303
  48     -0.000352867279
  49     -0.001811658389
  50      0.001345953866
  51      0.001261509653
  52     -0.000027510842
  53     -0.000225465551
  54      0.000214657306
  55      0.000016017945
  56     -0.000242491155
 Ene=  -0.19806554100078E+02
 Spin= Alpha
 Occup=    1.000000
   1     -0.000216215439
   2     -0.000784581990
   3     -0.008203391760
   4      0.000080360628
   5      0.000210060073
   6      0.000186558699
   7      0.004579316925
   8      0.012628433131
   9      0.011215388182
  10      0.000253536057
  11      0.000991009563
  12      0.000967028372
  13     -0.000710722098
  14      0.001092321869
  15     -0.004013330176
  16      0.000815978929
  17     -0.002052180115
  18     -0.000362388225
  19      0.000192924414
  20      0.000183724899
  21      0.000909898282
  22     -0.002519585309
  23     -0.002290252875
  24     -0.000009760938
  25      0.000275233714
  26     -0.000188139549
  27      0.000039828266
  28      0.000302351349
  29      0.135200104333
  30      0.007191140391
  31     -0.009671108365
  32      0.000531415374
  33     -0.000287499885
  34     -0.000274769178
  35     -0.003806376700
  36      0.000320325284
  37      0.000403238950
  38      0.000226489397
  39      0.000206927353
  40      0.000205323160
  41     -0.000449478121
  42      0.000207849869
  43     -0.955801492451
  44     -0.042990704341
  45      0.034479223839
  46     -0.001243463105
  47     -0.002004628635
  48     -0.001764460535
  49      0.003786015260
  50      0.005457381665
  51      0.004791780074
  52     -0.000072482373
  53     -0.000036011194
  54     -0.000006098537
  55      0.000130026868
  56     -0.000032734220
 Ene=  -0.19805945623914E+02
 Spin= Alpha
 Occup=    1.000000
   1      0.000295860318
   2      0.001061922039
   3      0.011165423064
   4     -0.000126360956
   5      0.000147907060
   6      0.000136589122
   7     -0.007463941087
   8      0.009230404003
   9      0.008522875548
  10     -0.000317419634
  11      0.000859016519
  12     -0.001211760546
  13      0.000750875848
  14      0.000961255451
  15      0.005325162072
  16     -0.001118983237
  17      0.002774882672
  18      0.000474095584
  19      0.000179095855
  20      0.000147593045
  21     -0.000979012773
  22     -0.001996253810
  23     -0.001768295291
  24      0.000021296608
  25      0.000189294645
  26      0.000287478545
  27     -0.000110121188
  28      0.000213865699
  29      0.976723147786
  30      0.043602628320
  31     -0.033807335213
  32      0.001364344338
  33     -0.001932110060
  34     -0.001778298163
  35     -0.003432361125
  36      0.005347732070
  37      0.004911468491
  38      0.000007970843
  39     -0.000106183513
  40     -0.000053992070
  41      0.000003005703
  42     -0.000120203175
  43      0.138647877759
  44      0.005056312415
  45      0.000084806449
  46     -0.000166965787
  47      0.000240867083
  48      0.000221783039
  49      0.002877776791
  50     -0.000935076378
  51     -0.000927842719
  52     -0.000213833737
  53      0.000259934806
  54     -0.000192006279
  55      0.000393200437
  56      0.000308936458
 Ene=  -0.19799983517081E+02
 Spin= Alpha
 Occup=    0.000001
   1     -0.000000283961
   2     -0.000000572639
   3     -0.000009506850
   4      0.000000082075
   5      0.000000005352
   6      0.000000000551
   7     -0.000010217551
   8     -0.000000355237
   9     -0.000000019706
  10     -0.000000679411
  11      0.000000044990
  12     -0.000000367795
  13      0.000001314469
  14      0.000000118033
  15     -0.000805886484
  16     -0.000035846660
  17      0.000026524700
  18      0.000002423821
  19      0.000000100598
  20      0.000000031527
  21     -0.000006093064
  22     -0.000000266436
  23     -0.000000069277
  24      0.000000152237
  25      0.000000017437
  26     -0.000000664249
  27      0.000000265505
  28      0.000000014773
  29     -0.000017787607
  30      0.000000119882
  31     -0.000000953690
  32     -0.000000000203
  33     -0.000000285805
  34     -0.000000236809
  35      0.000001358844
  36      0.000001082855
  37      0.000000930734
  38      0.000000007653
  39     -0.000000149374
  40     -0.000000184240
  41     -0.000000004612
  42     -0.000000169500
  43     -0.000023945993
  44     -0.000000163957
  45     -0.000000710186
  46     -0.000000036330
  47      0.000000270815
  48      0.000000224387
  49      0.000001502064
  50     -0.000000934151
  51     -0.000000879759
  52      0.000000009569
  53      0.000000162683
  54     -0.000000170384
  55     -0.000000030047
  56      0.000000172782
 Ene=  -0.19782605206811E+02
 Spin= Alpha
 Occup=    0.000000
   1     -0.000000123373
   2     -0.000000481854
   3     -0.000004513719
   4      0.000000062175
   5      0.000000163460
   6      0.000000111818
   7      0.000002560163
   8      0.000007473636
   9      0.000006764820
  10      0.000000080688
  11      0.000000550582
  12      0.000000499794
  13     -0.000000438599
  14      0.000000656118
  15      0.000001160801
  16      0.000000602761
  17     -0.000001246658
  18     -0.000000211375
  19      0.000000104279
  20      0.000000121670
  21      0.000000533310
  22     -0.000001486607
  23     -0.000001387310
  24      0.000000013236
  25      0.000000164936
  26     -0.000000096112
  27      0.000000030966
  28      0.000000177402
  29      0.000098899516
  30      0.000005051811
  31     -0.000006278515
  32      0.000000335661
  33     -0.000000219754
  34     -0.000000168928
  35     -0.000002283082
  36      0.000000314373
  37      0.000000290651
  38      0.000000138386
  39      0.000000119741
  40      0.000000047686
  41     -0.000000294767
  42      0.000000112896
  43     -0.000551750621
  44     -0.000024855908
  45      0.000020030130
  46     -0.000000717087
  47     -0.000001297400
  48     -0.000000838974
  49      0.000002262019
  50      0.000003275186
  51      0.000002682779
  52     -0.000000000708
  53     -0.000000038799
  54      0.000000377645
  55      0.000000302075
  56      0.000000031907
 Ene=  -0.19782078724887E+02
 Spin= Alpha
 Occup=    0.000000
   1     -0.000000163657
   2     -0.000000629008
   3     -0.000005950344
   4      0.000000092734
   5     -0.000000114462
   6     -0.000000081723
   7      0.000004076316
   8     -0.000005421886
   9     -0.000005088461
  10      0.000000093498
  11     -0.000000468453
  12      0.000000603660
  13     -0.000000453427
  14     -0.000000567611
  15      0.000000710891
  16      0.000000760509
  17     -0.000001603694
  18     -0.000000265538
  19     -0.000000096636
  20     -0.000000097301
  21      0.000000544341
  22      0.000001164330
  23      0.000001059096
  24      0.000000011417
  25     -0.000000112300
  26     -0.000000146338
  27      0.000000074317
  28     -0.000000123746
  29     -0.000544966016
  30     -0.000024382197
  31      0.000019027550
  32     -0.000000762368
  33      0.000001218667
  34      0.000000821996
  35      0.000002014414
  36     -0.000003096403
  37     -0.000002666219
  38      0.000000044307
  39      0.000000080565
  40      0.000000404658
  41      0.000000230555
  42      0.000000028759
  43     -0.000050346057
  44     -0.000001650051
  45     -0.000000953981
  46      0.000000127925
  47     -0.000000103806
  48     -0.000000053070
  49     -0.000001700622
  50      0.000000383330
  51      0.000000406170
  52      0.000000141194
  53     -0.000000152376
  54      0.000000139157
  55     -0.000000196990
  56     -0.000000155737
 Ene=  -0.10823140425346E+02
 Spin= Alpha
 Occup=    0.000000
   1      0.000201852898
   2      0.000009966497
   3      0.000000261190
   4      0.000000116222
   5      0.000000004134
   6      0.000000000602
   7      0.000000112556
   8      0.000000004590
   9      0.000000001804
  10     -0.000000380113
  11     -0.000000028070
  12      0.000000854853
  13      0.000000159750
  14      0.000000010320
  15      0.000000022623
  16      0.000000066476
  17     -0.000001802923
  18      0.000000205952
  19      0.000000008444
  20      0.000000002091
  21      0.000001390031
  22      0.000000057688
  23      0.000000009996
  24      0.000000176547
  25      0.000000004889
  26     -0.000000010717
  27     -0.000000217639
  28     -0.000000019424
  29     -0.000000030377
  30      0.000000155792
  31     -0.000001809604
  32     -0.000000107443
  33      0.000000097395
  34      0.000000145103
  35     -0.000000650873
  36      0.000000982078
  37      0.000000871523
  38      0.000000134467
  39      0.000000124526
  40     -0.000000203974
  41      0.000000141151
  42      0.000000222257
  43     -0.000000028877
  44      0.000000156263
  45     -0.000001809398
  46     -0.000000095838
  47     -0.000000105797
  48     -0.000000149062
  49     -0.000000559094
  50     -0.000001032258
  51     -0.000000878570
  52      0.000000137687
  53     -0.000000108194
  54     -0.000000214314
  55      0.000000175485
  56     -0.000000202603
 Ene=  -0.10816284358071E+02
 Spin= Alpha
 Occup=    1.000000
   1      0.970395433353
   2      0.047784708412
   3      0.001223810725
   4      0.000657194325
   5      0.000027823994
   6      0.000008510459
   7      0.000559850854
   8      0.000021818456
   9      0.000009290243
  10     -0.001038003036
  11     -0.000125317249
  12      0.003641775800
  13      0.001023613309
  14      0.000059733333
  15     -0.000102797949
  16      0.000481929578
  17     -0.008772052330
  18      0.000934473702
  19      0.000038057005
  20      0.000007289798
  21      0.006721778821
  22      0.000281761592
  23      0.000056863378
  24      0.000632772146
  25     -0.000018290461
  26      0.000004827873
  27     -0.001093623793
  28     -0.000090888125
  29     -0.000063294721
  30      0.000707578379
  31     -0.008583757429
  32     -0.000509146136
  33      0.000594773110
  34      0.000550296654
  35     -0.003089800734
  36      0.004595074596
  37      0.004222821945
  38     -0.000046395144
  39      0.000787925218
  40     -0.001070056819
  41      0.000256118316
  42      0.000854558328
  43     -0.000062297393
  44      0.000716059535
  45     -0.008582527027
  46     -0.000449204826
  47     -0.000633764697
  48     -0.000556001359
  49     -0.002645878186
  50     -0.004831688752
  51     -0.004265342483
  52     -0.000064665718
  53     -0.000693827969
  54     -0.001148586900
  55      0.000404559163
  56     -0.000788473616
 Ene=  -0.13602956835152E+01
 Spin= Alpha
 Occup=    1.000000
   1      0.055333904830
   2     -0.107389996606
   3     -0.002775659594
   4     -0.019026927015
   5     -0.000868132688
   6     -0.000228901371
   7     -0.001247221664
   8     -0.000061538461
   9     -0.000023217910
  10      0.002782920413
  11      0.000205896912
  12     -0.006658826908
  13     -0.003401841496
  14     -0.000234504636
  15      0.057797506933
  16     -0.116989775013
  17     -0.059378235306
  18      0.038242830568
  19      0.001709639998
  20      0.000301224023
  21      0.009314576293
  22      0.000387353665
  23      0.000077534858
  24      0.001698337672
  25      0.000051385015
  26     -0.002202345003
  27     -0.002477913594
  28     -0.000185997374
  29      0.037821420846
  30     -0.076015793719
  31     -0.039782459587
  32     -0.014560200412
  33      0.016214081778
  34      0.015054802708
  35     -0.003858195571
  36      0.004260145451
  37      0.003944644554
  38     -0.000422801038
  39      0.001489388346
  40     -0.000843246668
  41      0.000813571141
  42      0.001682230044
  43      0.037768168030
  44     -0.075916416675
  45     -0.039810742568
  46     -0.012792805352
  47     -0.017391800767
  48     -0.015208858479
  49     -0.003451133114
  50     -0.004574956608
  51     -0.004008837305
  52     -0.000465124934
  53     -0.001383840759
  54     -0.000974675893
  55      0.001102915374
  56     -0.001510639427
 Ene=  -0.13112049922544E+01
 Spin= Alpha
 Occup=    0.000000
   1     -0.000001145907
   2      0.000002178133
   3      0.000000111359
   4     -0.000001213843
   5      0.000000029355
   6     -0.000000529253
   7     -0.000000273772
   8     -0.000000160605
   9      0.000000212629
  10      0.000001072780
  11      0.000000030526
  12      0.000000400356
  13      0.000000435753
  14      0.000000028728
  15      0.000000535984
  16     -0.000001619434
  17      0.000000126960
  18      0.000000001424
  19     -0.000000680056
  20      0.000004735953
  21     -0.000000261434
  22      0.000000008895
  23      0.000000037555
  24      0.000000100575
  25     -0.000000143386
  26      0.000000127788
  27      0.000000072815
  28      0.000000036282
  29     -0.000001743187
  30      0.000003741489
  31      0.000001675337
  32      0.000000431833
  33     -0.000049830333
  34      0.000053188639
  35      0.000000229638
  36     -0.000001668432
  37      0.000001706855
  38     -0.000001671455
  39      0.000000753426
  40     -0.000000111619
  41     -0.000000984682
  42     -0.000000803165
  43     -0.000001848543
  44      0.000004014907
  45      0.000001610629
  46      0.000000322823
  47      0.000050478944
  48     -0.000056377034
  49      0.000000012375
  50      0.000001745481
  51     -0.000001950873
  52     -0.000001776754
  53     -0.000000726005
  54     -0.000000242348
  55     -0.000001059531
  56      0.000000684936
 Ene=  -0.12272603869969E+01
 Spin= Alpha
 Occup=    1.000000
   1      0.000376453331
   2     -0.000749859990
   3     -0.000078556222
   4     -0.001925952730
   5      0.099297976001
   6      0.089336627542
   7     -0.000236875770
   8      0.005974691060
   9      0.005380264460
  10     -0.000256797302
  11     -0.008601557333
  12     -0.000671935542
  13      0.001168314090
  14     -0.009526198947
  15     -0.002393472852
  16      0.004894912664
  17      0.002866764381
  18     -0.001787757153
  19      0.015463654236
  20      0.013957661337
  21     -0.000537441885
  22      0.004868782796
  23      0.004395562820
  24     -0.000045632655
  25     -0.001524634795
  26      0.000017777621
  27      0.000174082948
  28     -0.001685284534
  29     -0.101368029871
  30      0.207002913865
  31      0.117204494522
  32      0.030239704079
  33     -0.029514491045
  34     -0.027372937902
  35      0.009079086168
  36     -0.008172169478
  37     -0.007614711009
  38      0.000787048871
  39     -0.002612269318
  40     -0.000263546576
  41     -0.001138237955
  42     -0.002997764604
  43      0.104907590000
  44     -0.214278179085
  45     -0.121507983252
  46     -0.027623759632
  47     -0.033008651113
  48     -0.028904663135
  49     -0.008318340056
  50     -0.009288655105
  51     -0.008103389529
  52     -0.000936028812
  53     -0.002613407851
  54      0.000007442679
  55      0.001782298545
  56     -0.002810139906
 Ene=  -0.12192038175389E+01
 Spin= Alpha
 Occup=    1.000000
   1      0.000901326832
   2     -0.001817928827
   3     -0.000232981281
   4      0.006495993772
   5      0.000222699300
   6      0.000100085520
   7      0.000204246290
   8      0.000024321527
   9     -0.000001935488
  10     -0.000350602002
  11      0.000035191216
  12     -0.000571175910
  13      0.000726044024
  14      0.000063600060
  15     -0.005645849154
  16      0.011566872552
  17      0.006825617832
  18     -0.002424735626
  19      0.000032876795
  20     -0.000010073997
  21     -0.000715360494
  22     -0.000018836225
  23     -0.000002832731
  24     -0.000058530241
  25     -0.000008252088
  26      0.000220200623
  27      0.000055874321
  28     -0.000000677140
  29      0.003866478944
  30     -0.007912763305
  31     -0.004561695454
  32     -0.000253038823
  33      0.001437578974
  34      0.001286988712
  35     -0.000060774186
  36      0.000416098732
  37      0.000376641488
  38     -0.000071093826
  39      0.000044611071
  40     -0.000029561319
  41      0.000126697067
  42      0.000056691719
  43      0.003969412296
  44     -0.008120702880
  45     -0.004711083490
  46     -0.000280154816
  47     -0.001459950772
  48     -0.001312020701
  49     -0.000047923255
  50     -0.000446548614
  51     -0.000398982062
  52     -0.000073754702
  53     -0.000045451822
  54     -0.000037838320
  55      0.000138295806
  56     -0.000043966572
 Ene=  -0.11586759975592E+01
 Spin= Alpha
 Occup=    0.000000
   1     -0.000000124287
   2      0.000000322360
   3      0.000000166141
   4     -0.000000798048
   5      0.000041431557
   6     -0.000051302359
   7      0.000000046257
   8     -0.000018463855
   9      0.000020223393
  10     -0.000000123106
  11     -0.000001395977
  12     -0.000000068122
  13     -0.000000092657
  14      0.000001689043
  15      0.000000931335
  16     -0.000001840650
  17     -0.000001489976
  18      0.000000071083
  19      0.000024889183
  20     -0.000028452462
  21      0.000000358455
  22      0.000006831488
  23     -0.000007794404
  24      0.000000123891
  25      0.000000734349
  26     -0.000000000437
  27     -0.000000108761
  28     -0.000000592054
  29      0.000001848484
  30     -0.000003386042
  31     -0.000002803529
  32     -0.000000803611
  33     -0.000058690055
  34      0.000064978203
  35     -0.000000284669
  36      0.000000143969
  37      0.000000311306
  38     -0.000002087243
  39      0.000001103340
  40     -0.000000003265
  41     -0.000001097618
  42     -0.000000918381
  43     -0.000003066498
  44      0.000005843909
  45      0.000004395034
  46      0.000000685403
  47     -0.000060139918
  48      0.000071115148
  49      0.000000331050
  50      0.000000174359
  51      0.000001055751
  52      0.000002306114
  53      0.000001138084
  54      0.000000252457
  55      0.000001133395
  56     -0.000000747976
 Ene=  -0.11480996435989E+01
 Spin= Alpha
 Occup=    0.000000
   1     -0.000000687414
   2      0.000001125260
   3     -0.000000504629
   4      0.000001542560
   5      0.000000816349
   6     -0.000002360733
   7      0.000000108417
   8     -0.000000133125
   9      0.000000937638
  10     -0.000001821658
  11      0.000000180033
  12     -0.000000211276
  13     -0.000000788640
  14      0.000000008443
  15     -0.000001502419
  16      0.000002397540
  17      0.000002859188
  18     -0.000001086918
  19     -0.000000632233
  20      0.000005872347
  21     -0.000000621597
  22      0.000000132847
  23      0.000000338844
  24      0.000000199451
  25     -0.000000197011
  26      0.000000258142
  27      0.000000111347
  28      0.000000024006
  29      0.000000073313
  30     -0.000000530145
  31      0.000000641424
  32      0.000000653398
  33      0.000055428522
  34     -0.000061914362
  35      0.000000329189
  36      0.000004900579
  37     -0.000006326518
  38      0.000001999258
  39     -0.000000745730
  40      0.000000300760
  41      0.000001104947
  42      0.000000412936
  43      0.000001199691
  44     -0.000002712268
  45     -0.000001224448
  46     -0.000000155240
  47     -0.000054306508
  48      0.000060669244
  49     -0.000000033277
  50     -0.000005085745
  51      0.000005415287
  52      0.000001986614
  53      0.000000445686
  54      0.000000161191
  55      0.000001195040
  56     -0.000000462958
 Ene=  -0.71030618999221E+00
 Spin= Alpha
 Occup=    0.999999
   1      0.110022832914
   2     -0.267590880064
   3     -0.016110223672
   4     -0.049037719018
   5     -0.001871109319
   6     -0.000244509405
   7     -0.001643245781
   8     -0.000046814351
   9      0.000053433210
  10      0.002451685032
  11      0.000216875948
  12     -0.007009823849
  13     -0.002757289434
  14     -0.000239967242
  15     -0.075910123460
  16      0.160957350684
  17      0.166550744322
  18      0.228325427120
  19      0.008364995607
  20      0.001717853000
  21      0.111267400930
  22      0.004190885399
  23      0.000835547042
  24      0.006412762694
  25     -0.000381725851
  26      0.004356633536
  27     -0.011976144949
  28     -0.001012732181
  29     -0.058081559048
  30      0.122857712743
  31      0.121969601904
  32     -0.080856140379
  33      0.089812897502
  34      0.082812794242
  35     -0.039844722064
  36      0.044142837657
  37      0.040731153358
  38      0.000442236543
  39      0.004098858581
  40     -0.006465333962
  41      0.000353465325
  42      0.004350117843
  43     -0.058005701987
  44      0.122705703813
  45      0.121844491586
  46     -0.072814121846
  47     -0.095789954803
  48     -0.084213377229
  49     -0.035803710968
  50     -0.047198305234
  51     -0.041466421296
  52      0.000360063905
  53     -0.003572504164
  54     -0.006849876850
  55      0.001079070160
  56     -0.004145515789
 Ene=  -0.67543881100365E+00
 Spin= Alpha
 Occup=    0.000219
   1      0.000009882884
   2     -0.000023921648
   3     -0.000003785245
   4      0.000037401535
   5      0.000095181470
   6      0.000096670918
   7      0.000007236546
   8      0.000011240969
   9      0.000015321089
  10      0.000046462828
  11      0.000007306654
  12      0.000005560790
  13      0.000026025186
  14      0.000007558982
  15      0.000007652604
  16     -0.000015183915
  17     -0.000021825418
  18     -0.000046473392
  19      0.000119652236
  20      0.000164237230
  21     -0.000020506039
  22      0.000070562498
  23      0.000087887842
  24      0.000000112145
  25     -0.000007166281
  26     -0.000000487339
  27      0.000002746652
  28     -0.000005410667
  29      0.000026326672
  30     -0.000055826917
  31     -0.000061672625
  32      0.000110663404
  33     -0.000466410503
  34      0.000465113220
  35      0.000060804427
  36     -0.000206099581
  37      0.000207160209
  38     -0.000017506405
  39      0.000004749617
  40      0.000000374347
  41     -0.000006293610
  42     -0.000011044255
  43     -0.000047858500
  44      0.000100027809
  45      0.000114349341
  46     -0.000082934014
  47      0.000348760956
  48     -0.000592692523
  49     -0.000045788041
  50      0.000151633659
  51     -0.000264439396
  52     -0.000015624417
  53     -0.000010823080
  54     -0.000009256257
  55     -0.000009054386
  56      0.000002248499
 Ene=  -0.67190311218091E+00
 Spin= Alpha
 Occup=    0.999769
   1      0.000858460493
   2     -0.002077243137
   3     -0.000354454796
   4      0.002561859229
   5      0.019054857524
   6      0.017153226260
   7      0.000521064679
   8      0.002474460785
   9      0.002247704317
  10     -0.000026308767
  11      0.001097469191
  12      0.000002233654
  13     -0.000135261844
  14      0.001208276848
  15      0.000574378383
  16     -0.001170901756
  17     -0.001633632275
  18     -0.004325818767
  19      0.024334322656
  20      0.022126159569
  21     -0.002037751017
  22      0.014163667837
  23      0.012858096488
  24     -0.000084172501
  25     -0.001042209428
  26     -0.000072564619
  27      0.000224979115
  28     -0.001141094452
  29      0.006048849511
  30     -0.012714369587
  31     -0.014348044481
  32      0.019248440085
  33     -0.007604555174
  34     -0.008297439335
  35      0.010489759736
  36     -0.003429066518
  37     -0.003771598128
  38     -0.000249372671
  39     -0.000684110058
  40      0.000613816542
  41      0.000375802861
  42     -0.000699627076
  43     -0.007815604107
  44      0.016374904752
  45      0.018675029395
  46     -0.016466024242
  47     -0.015812782401
  48     -0.012665640625
  49     -0.009015280507
  50     -0.007464795753
  51     -0.005967564619
  52      0.000194896443
  53     -0.000643074986
  54     -0.001051657932
  55     -0.000020701579
  56     -0.000774014114
 Ene=  -0.65395554562979E+00
 Spin= Alpha
 Occup=    0.999990
   1      0.000165846394
   2     -0.000409261559
   3     -0.000088849079
   4     -0.005055666500
   5      0.206555057470
   6     -0.228606771190
   7     -0.002580379196
   8      0.085367388782
   9     -0.094840911084
  10     -0.000032620703
  11     -0.002884468486
  12     -0.000105392413
  13     -0.000131142708
  14      0.002635504017
  15      0.000355432393
  16     -0.000741753975
  17     -0.000910426118
  18     -0.007500905401
  19      0.175723752796
  20     -0.194423737895
  21     -0.004093995303
  22      0.099336493970
  23     -0.109869842661
  24      0.000144042061
  25      0.012728299995
  26      0.000417607024
  27      0.000924838549
  28     -0.011467679764
  29     -0.000128881948
  30      0.000256711710
  31      0.000358074131
  32     -0.006269991465
  33      0.204715212377
  34     -0.226173638564
  35     -0.003411061392
  36      0.114815729638
  37     -0.126874218050
  38      0.013849964188
  39     -0.006412550147
  40      0.001434081204
  41      0.007657974447
  42      0.006221210028
  43     -0.000482221046
  44      0.000999896765
  45      0.001198022599
  46     -0.007024134907
  47      0.203576509538
  48     -0.229405759428
  49     -0.003832806110
  50      0.114351810217
  51     -0.128718043164
  52     -0.014068636117
  53     -0.006066753109
  54     -0.002024780122
  55     -0.008421586201
  56      0.004924473898
 Ene=  -0.64939298022708E+00
 Spin= Alpha
 Occup=    0.999991
   1      0.002561986287
   2     -0.006190638295
   3     -0.001547599187
   4      0.021007344851
   5      0.004391543719
   6      0.001605653813
   7      0.003309829107
   8      0.000675580735
   9     -0.000125501908
  10     -0.000125352850
  11      0.000126960985
  12     -0.000232071990
  13      0.000266799016
  14      0.000094685047
  15      0.004385670217
  16     -0.009144586149
  17     -0.011850110012
  18     -0.020010784024
  19      0.001794421368
  20      0.002078643677
  21     -0.010013789963
  22      0.001381760793
  23      0.001290918669
  24     -0.000464998381
  25     -0.000074744414
  26     -0.000184237057
  27      0.000851602041
  28     -0.000091721646
  29     -0.002874568231
  30      0.005917234101
  31      0.007495565643
  32      0.005432171941
  33      0.012645388133
  34      0.009250609512
  35      0.003832616687
  36      0.006743731750
  37      0.004877318872
  38     -0.000162299805
  39     -0.000052022862
  40     -0.000766060321
  41      0.000586000838