[Molden Format]
[Title]
generated by TRESC, real part1 of MOs of job CO3
 
[Atoms] AU
 C   1   6    0.3364484192    5.8882927452    0.3891081484
 O   2   8    2.6974300312    5.9862747024    0.4085979628
 O   3   8   -0.7714112401    7.4618585764    1.8371371576
 O   4   8   -0.6184572465    4.2284969646   -1.0743142370
[GTO]
  1 0
 s  5 1.0
     1238.4016938000        0.0059599745
      186.2900499200        0.0422621111
       42.2511763500        0.1866575214
       11.6765579300        0.4675815865
        3.5930506500        0.4422897287
 s  1 1.0
        0.4024514700        1.0000000000
 s  1 1.0
        0.1309018300        1.0000000000
 p  3 1.0
        9.4680970600        0.0570294585
        2.0103545100        0.3130471495
        0.5477100500        0.7605135301
 p  1 1.0
        0.1526861400        1.0000000000
 d  1 1.0
        0.8000000000        1.0000000000
 
  2 0
 s  5 1.0
     2266.1767785000        0.0060711540
      340.8701019100        0.0417308970
       77.3631351700        0.1850777598
       21.4796449400        0.4668774046
        6.6589433100        0.4435718061
 s  1 1.0
        0.8097597600        1.0000000000
 s  1 1.0
        0.2553077200        1.0000000000
 p  3 1.0
       17.7215043200        0.0628680198
        3.8635505400        0.3334973703
        1.0480920900        0.7412421661
 p  1 1.0
        0.2764154400        1.0000000000
 d  1 1.0
        1.2000000000        1.0000000000
 
  3 0
 s  5 1.0
     2266.1767785000        0.0060711540
      340.8701019100        0.0417308970
       77.3631351700        0.1850777598
       21.4796449400        0.4668774046
        6.6589433100        0.4435718061
 s  1 1.0
        0.8097597600        1.0000000000
 s  1 1.0
        0.2553077200        1.0000000000
 p  3 1.0
       17.7215043200        0.0628680198
        3.8635505400        0.3334973703
        1.0480920900        0.7412421661
 p  1 1.0
        0.2764154400        1.0000000000
 d  1 1.0
        1.2000000000        1.0000000000
 
  4 0
 s  5 1.0
     2266.1767785000        0.0060711540
      340.8701019100        0.0417308970
       77.3631351700        0.1850777598
       21.4796449400        0.4668774046
        6.6589433100        0.4435718061
 s  1 1.0
        0.8097597600        1.0000000000
 s  1 1.0
        0.2553077200        1.0000000000
 p  3 1.0
       17.7215043200        0.0628680198
        3.8635505400        0.3334973703
        1.0480920900        0.7412421661
 p  1 1.0
        0.2764154400        1.0000000000
 d  1 1.0
        1.2000000000        1.0000000000
 
[5D]
[7F]
[9G]
[MO]
 Ene=  -0.19825682835469E+02
 Spin= Alpha
 Occup=    0.999999
   1     -0.000006746109
   2     -0.000012311892
   3     -0.000246548385
   4      0.000003384857
   5      0.000000093514
   6     -0.000000023173
   7     -0.000287356998
   8     -0.000013317602
   9     -0.000003715734
  10     -0.000020398062
  11      0.000000942279
  12     -0.000011512725
  13      0.000037644171
  14      0.000003265216
  15     -0.022045578561
  16     -0.000981716679
  17      0.000729489580
  18      0.000067539791
  19      0.000003184794
  20      0.000000486944
  21     -0.000167013411
  22     -0.000006869545
  23     -0.000001083087
  24      0.000002455946
  25     -0.000000421234
  26     -0.000006454550
  27     -0.000002812266
  28     -0.000000659825
  29      0.000038198388
  30      0.000025882986
  31     -0.000040488653
  32      0.000000452224
  33     -0.000008635427
  34     -0.000007781139
  35      0.000037810544
  36      0.000032836484
  37      0.000028470075
  38      0.000000488311
  39     -0.000004612943
  40     -0.000005251940
  41      0.000000573571
  42     -0.000005351881
  43      0.000163682704
  44      0.000031697863
  45     -0.000045846917
  46     -0.000000152048
  47      0.000008892844
  48      0.000007995007
  49      0.000039951259
  50     -0.000030435778
  51     -0.000028476905
  52      0.000000651631
  53      0.000005034869
  54     -0.000004801315
  55     -0.000000411375
  56      0.000005339703
 Ene=  -0.19806554100078E+02
 Spin= Alpha
 Occup=    1.000000
   1     -0.000047045380
   2     -0.000170563508
   3     -0.001783931904
   4      0.000017551862
   5      0.000046082577
   6      0.000040924351
   7      0.000993093946
   8      0.002772277092
   9      0.002462406151
  10      0.000055066532
  11      0.000217784660
  12      0.000210220103
  13     -0.000154473340
  14      0.000239992983
  15     -0.000943832093
  16      0.000174240146
  17     -0.000443787409
  18     -0.000078577354
  19      0.000042373722
  20      0.000040348686
  21      0.000197580775
  22     -0.000553303192
  23     -0.000502872860
  24     -0.000002061703
  25      0.000060401423
  26     -0.000040920444
  27      0.000008589520
  28      0.000066412684
  29      0.030583786389
  30      0.001618262571
  31     -0.002150794391
  32      0.000117633156
  33     -0.000064944576
  34     -0.000061988253
  35     -0.000836093268
  36      0.000075708420
  37      0.000093370241
  38      0.000049575646
  39      0.000045193029
  40      0.000044843911
  41     -0.000098296693
  42      0.000045230387
  43     -0.208960869090
  44     -0.009399905481
  45      0.007543043604
  46     -0.000272520204
  47     -0.000438102585
  48     -0.000385759848
  49      0.000831562808
  50      0.001192746903
  51      0.001047254666
  52     -0.000016072573
  53     -0.000007974923
  54     -0.000001644798
  55      0.000029000396
  56     -0.000006359918
 Ene=  -0.19805945623914E+02
 Spin= Alpha
 Occup=    1.000000
   1      0.000017086367
   2      0.000061437277
   3      0.000645560618
   4     -0.000007253173
   5      0.000008927637
   6      0.000008240862
   7     -0.000433598279
   8      0.000553996710
   9      0.000511147826
  10     -0.000018400649
  11      0.000051267783
  12     -0.000070115388
  13      0.000043466316
  14      0.000057476013
  15      0.000256425570
  16     -0.000067015912
  17      0.000162233749
  18      0.000027573045
  19      0.000010738103
  20      0.000008841726
  21     -0.000056797300
  22     -0.000119617598
  23     -0.000106018410
  24      0.000001276432
  25      0.000011393133
  26      0.000016617073
  27     -0.000006414262
  28      0.000012788330
  29      0.057396798931
  30      0.002563540681
  31     -0.001991925263
  32      0.000080238171
  33     -0.000113784517
  34     -0.000104546391
  35     -0.000204874262
  36      0.000314040022
  37      0.000288414661
  38      0.000000699771
  39     -0.000005641507
  40     -0.000003040817
  41     -0.000000080482
  42     -0.000007254632
  43      0.007144264182
  44      0.000252286856
  45      0.000040290425
  46     -0.000011016205
  47      0.000012053773
  48      0.000011223245
  49      0.000172693184
  50     -0.000049247781
  51     -0.000049526282
  52     -0.000012592718
  53      0.000015272030
  54     -0.000011250610
  55      0.000023158657
  56      0.000018065111
 Ene=  -0.19799983517081E+02
 Spin= Alpha
 Occup=    0.000001
   1     -0.000000016243
   2     -0.000000036404
   3     -0.000000557781
   4      0.000000005360
   5     -0.000000029721
   6      0.000000015252
   7     -0.000000350094
   8     -0.000001932995
   9     -0.000001789197
  10     -0.000000033481
  11     -0.000000230778
  12     -0.000000017670
  13      0.000000072510
  14     -0.000000163873
  15     -0.000039387718
  16     -0.000001740439
  17      0.000001273419
  18      0.000000116240
  19     -0.000000022638
  20     -0.000000265520
  21     -0.000000308175
  22      0.000000377462
  23      0.000000486766
  24      0.000000005772
  25      0.000000235769
  26     -0.000000023739
  27     -0.000000015848
  28      0.000000298828
  29     -0.000091256144
  30     -0.000004102111
  31      0.000003504983
  32     -0.000000140556
  33      0.000000168208
  34      0.000000152644
  35      0.000000675075
  36     -0.000000386192
  37     -0.000000353700
  38     -0.000000013056
  39      0.000000009663
  40     -0.000000034352
  41      0.000000029938
  42     -0.000000025049
  43      0.000079981328
  44      0.000003697216
  45     -0.000003306899
  46      0.000000112890
  47      0.000000187065
  48      0.000000160005
  49     -0.000000491600
  50     -0.000000479902
  51     -0.000000402232
  52      0.000000016611
  53      0.000000018456
  54      0.000000019536
  55     -0.000000032079
  56     -0.000000016869
 Ene=  -0.19782605206811E+02
 Spin= Alpha
 Occup=    0.000000
   1      0.000000001913
   2      0.000000005909
   3     -0.000000189504
   4     -0.000000033827
   5     -0.000000002724
   6      0.000000018364
   7      0.000000083690
   8      0.000000424564
   9      0.000000363851
  10      0.000000036489
  11      0.000000035835
  12      0.000000056599
  13     -0.000000056156
  14     -0.000000012316
  15     -0.000004902370
  16     -0.000000182936
  17      0.000000095315
  18      0.000000004929
  19      0.000000009576
  20      0.000000022817
  21     -0.000000042477
  22     -0.000000087257
  23     -0.000000075021
  24     -0.000000022875
  25     -0.000000013428
  26     -0.000000018139
  27      0.000000019671
  28      0.000000014061
  29      0.000012172751
  30      0.000000556900
  31     -0.000000546809
  32      0.000000040489
  33     -0.000000016176
  34     -0.000000014573
  35     -0.000000168984
  36      0.000000062881
  37      0.000000057977
  38      0.000000018722
  39      0.000000098796
  40      0.000000006023
  41     -0.000000011174
  42     -0.000000019514
  43     -0.000027092648
  44     -0.000001214339
  45      0.000000968264
  46      0.000000114977
  47     -0.000000059917
  48     -0.000000149423
  49      0.000000021434
  50      0.000000139160
  51      0.000000168186
  52      0.000000054537
  53     -0.000000443531
  54      0.000000024652
  55     -0.000000031440
  56      0.000000219122
 Ene=  -0.19782078724887E+02
 Spin= Alpha
 Occup=    0.000000
   1     -0.000000009695
   2     -0.000000037105
   3     -0.000000158082
   4      0.000000030984
   5     -0.000000011710
   6      0.000000017342
   7      0.000000114228
   8      0.000000067467
   9      0.000000027798
  10     -0.000000022852
  11      0.000000014151
  12     -0.000000010131
  13      0.000000021638
  14     -0.000000054362
  15      0.000003822647
  16      0.000000180292
  17     -0.000000156841
  18     -0.000000018366
  19      0.000000004268
  20      0.000000021446
  21      0.000000066977
  22     -0.000000009235
  23     -0.000000004590
  24      0.000000017834
  25     -0.000000030192
  26      0.000000005345
  27     -0.000000012566
  28      0.000000004150
  29     -0.000005399416
  30     -0.000000247507
  31      0.000000182935
  32     -0.000000155803
  33      0.000000008253
  34     -0.000000106993
  35      0.000000087150
  36     -0.000000047702
  37      0.000000013546
  38     -0.000000053665
  39     -0.000000423057
  40     -0.000000032144
  41      0.000000019538
  42      0.000000223462
  43     -0.000013562712
  44     -0.000000578615
  45      0.000000418198
  46      0.000000012420
  47     -0.000000020403
  48     -0.000000045593
  49      0.000000024587
  50      0.000000084588
  51      0.000000088173
  52      0.000000005826
  53     -0.000000027814
  54      0.000000011447
  55     -0.000000013199
  56      0.000000031541
 Ene=  -0.10823140425346E+02
 Spin= Alpha
 Occup=    0.000000
   1      0.000006496788
   2      0.000000320868
   3      0.000000008484
   4      0.000000002574
   5      0.000000027004
   6      0.000000026369
   7      0.000000004491
   8     -0.000000005463
   9     -0.000000011924
  10     -0.000000012976
  11     -0.000000025507
  12      0.000000026419
  13      0.000000008971
  14     -0.000000054232
  15      0.000000000615
  16      0.000000002537
  17     -0.000000058867
  18      0.000000006132
  19      0.000000003284
  20     -0.000000017983
  21      0.000000043944
  22      0.000000022953
  23      0.000000054756
  24      0.000000002923
  25     -0.000000212925
  26     -0.000000009199
  27     -0.000000004744
  28     -0.000000006247
  29      0.000000013840
  30     -0.000000011863
  31     -0.000000054420
  32      0.000000008092
  33      0.000000009097
  34      0.000000034727
  35     -0.000000059951
  36      0.000000026337
  37      0.000000007489
  38      0.000000088792
  39      0.000000005472
  40      0.000000047324
  41     -0.000000051641
  42      0.000000111819
  43     -0.000000015501
  44      0.000000021392
  45     -0.000000061339
  46     -0.000000015817
  47      0.000000001997
  48      0.000000024146
  49      0.000000021475
  50     -0.000000035215
  51     -0.000000047557
  52     -0.000000077049
  53      0.000000006014
  54     -0.000000058181
  55      0.000000045476
  56      0.000000105491
 Ene=  -0.10816284358071E+02
 Spin= Alpha
 Occup=    1.000000
   1      0.186948566459
   2      0.009205816927
   3      0.000235769403
   4      0.000126611064
   5      0.000005321456
   6      0.000001681526
   7      0.000107854370
   8      0.000004244690
   9      0.000001797863
  10     -0.000199973687
  11     -0.000024065543
  12      0.000701598280
  13      0.000197200086
  14      0.000011501638
  15     -0.000019803430
  16      0.000092844030
  17     -0.001689952070
  18      0.000180027143
  19      0.000007365358
  20      0.000001424067
  21      0.001294961950
  22      0.000054316093
  23      0.000010919680
  24      0.000121904639
  25     -0.000003553270
  26      0.000000932076
  27     -0.000210718605
  28     -0.000017143678
  29     -0.000012220616
  30      0.000136333644
  31     -0.001653708712
  32     -0.000098139091
  33      0.000114554051
  34      0.000106001605
  35     -0.000595282159
  36      0.000885240033
  37      0.000813549993
  38     -0.000008923799
  39      0.000151603538
  40     -0.000206239791
  41      0.000049527387
  42      0.000164643156
  43     -0.000011975124
  44      0.000137933140
  45     -0.001653409829
  46     -0.000086485822
  47     -0.000122121532
  48     -0.000107128468
  49     -0.000509707250
  50     -0.000930841707
  51     -0.000821712084
  52     -0.000012472752
  53     -0.000133866009
  54     -0.000221202088
  55      0.000077760397
  56     -0.000151923016
 Ene=  -0.13602956835152E+01
 Spin= Alpha
 Occup=    1.000000
   1     -0.166953094121
   2      0.324016370546
   3      0.008374656857
   4      0.057410907817
   5      0.002550662126
   6      0.000694344496
   7      0.003762533349
   8      0.000198910704
   9      0.000065084693
  10     -0.008396569006
  11     -0.000617014677
  12      0.020091144545
  13      0.010263730370
  14      0.000710877973
  15     -0.174386244093
  16      0.352980777297
  17      0.179155525851
  18     -0.115405303066
  19     -0.004691755146
  20     -0.000898343147
  21     -0.028103625621
  22     -0.001172551736
  23     -0.000237166476
  24     -0.005124195491
  25     -0.000152220018
  26      0.006644943051
  27      0.007476957908
  28      0.000552890127
  29     -0.114111089891
  30      0.229344869895
  31      0.120039148796
  32      0.043744049605
  33     -0.049090551586
  34     -0.045412717289
  35      0.011652962273
  36     -0.012858862251
  37     -0.011904269939
  38      0.001275657767
  39     -0.004493347059
  40      0.002548335721
  41     -0.002459230489
  42     -0.005077413065
  43     -0.113957348459
  44      0.229064033426
  45      0.120109111179
  46      0.038797893112
  47      0.052324007969
  48      0.045898399859
  49      0.010401341955
  50      0.013797429119
  51      0.012092780882
  52      0.001403345664
  53      0.004176111337
  54      0.002936744979
  55     -0.003323012121
  56      0.004556962925
 Ene=  -0.13112049922544E+01
 Spin= Alpha
 Occup=    0.000000
   1     -0.000000087193
   2      0.000000170773
   3      0.000000007107
   4     -0.000000355262
   5      0.000002213799
   6      0.000011878660
   7     -0.000000001077
   8      0.000001462572
   9     -0.000004202886
  10      0.000000029052
  11     -0.000001477852
  12     -0.000000029877
  13      0.000000039462
  14     -0.000000254900
  15      0.000000023313
  16     -0.000000086963
  17      0.000000039496
  18      0.000001248502
  19     -0.000006763984
  20     -0.000115344280
  21     -0.000000024430
  22     -0.000000328439
  23     -0.000001143900
  24      0.000000047196
  25      0.000003280272
  26      0.000000142710
  27     -0.000000007282
  28     -0.000000088625
  29     -0.000001886498
  30      0.000004700025
  31     -0.000000389706
  32      0.000048601824
  33     -0.000002336725
  34      0.000042321157
  35     -0.000001558707
  36     -0.000000105152
  37      0.000002583964
  38     -0.000001186027
  39      0.000000212638
  40     -0.000001211259
  41      0.000000677447
  42     -0.000000562984
  43      0.000001645349
  44     -0.000004183822
  45      0.000000595693
  46     -0.000048772034
  47     -0.000002175079
  48      0.000037030261
  49      0.000001488422
  50      0.000000151673
  51      0.000002460414
  52      0.000001044614
  53      0.000000013277
  54      0.000001189010
  55     -0.000000667693
  56     -0.000000630261
 Ene=  -0.12272603869969E+01
 Spin= Alpha
 Occup=    1.000000
   1      0.000575918977
   2     -0.001149822402
   3     -0.000126819774
   4     -0.003754397529
   5      0.166666791301
   6      0.149960956848
   7     -0.000380182147
   8      0.010029740945
   9      0.009031673566
  10     -0.000400658056
  11     -0.014441792433
  12     -0.001085210700
  13      0.001902661672
  14     -0.015996393425
  15     -0.003673288633
  16      0.007508001313
  17      0.004426033638
  18     -0.002921235193
  19      0.025955304624
  20      0.023431101387
  21     -0.000893887313
  22      0.008172927680
  23      0.007378686084
  24     -0.000079365087
  25     -0.002558646226
  26      0.000015818785
  27      0.000300712658
  28     -0.002828032156
  29     -0.170397666425
  30      0.347969068678
  31      0.197016952122
  32      0.050931106857
  33     -0.049478201788
  34     -0.046039751590
  35      0.015243068871
  36     -0.013729587015
  37     -0.012802738743
  38      0.001325714024
  39     -0.004386402453
  40     -0.000445259182
  41     -0.001913849243
  42     -0.005033901938
  43      0.175864474353
  44     -0.359209550849
  45     -0.203693567506
  46     -0.046191461171
  47     -0.055460414306
  48     -0.048430167040
  49     -0.013961310343
  50     -0.015579800850
  51     -0.013581744278
  52     -0.001566655416
  53     -0.004385398542
  54      0.000009938078
  55      0.002988309563
  56     -0.004715659676
 Ene=  -0.12192038175389E+01
 Spin= Alpha
 Occup=    1.000000
   1      0.033214235204
   2     -0.066989069485
   3     -0.008579884670
   4      0.239582164362
   5      0.005516843829
   6     -0.002100097102
   7      0.007554137514
   8     -0.000004426462
   9     -0.000228336922
  10     -0.012919655732
  11      0.001633653174
  12     -0.021033141158
  13      0.026721739588
  14      0.002779147177
  15     -0.208049194355
  16      0.426240509572
  17      0.251510702634
  18     -0.089077818116
  19     -0.004399154652
  20     -0.001376555138
  21     -0.026315846737
  22     -0.001323961435
  23     -0.000432131476
  24     -0.002152666369
  25     -0.000233017224
  26      0.008119141257
  27      0.002037817317
  28      0.000162337913
  29      0.148747713813
  30     -0.304333621266
  31     -0.175809735216
  32     -0.013716395298
  33      0.054079400939
  34      0.049042432101
  35     -0.003137482849
  36      0.016113308816
  37      0.014587682893
  38     -0.002670241478
  39      0.001896465284
  40     -0.001157574834
  41      0.004743885729
  42      0.002388605215
  43      0.139987747467
  44     -0.286462863081
  45     -0.165861308827
  46     -0.006198406651
  47     -0.052186329891
  48     -0.046719001363
  49     -0.000944383476
  50     -0.015587569156
  51     -0.013980979782
  52     -0.002660837189
  53     -0.001431759544
  54     -0.001299476415
  55      0.004963956835
  56     -0.001336919804
 Ene=  -0.11586759975592E+01
 Spin= Alpha
 Occup=    0.000000
   1      0.000003567733
   2     -0.000009653469
   3     -0.000005308003
   4     -0.000015750279
   5      0.000000884724
   6     -0.000002013867
   7      0.000017109467
   8     -0.000000065116
   9      0.000000806479
  10      0.000002165363
  11     -0.000000133801
  12      0.000000509366
  13     -0.000001653129
  14     -0.000000082610
  15     -0.000028577415
  16      0.000056367724
  17      0.000045961117
  18     -0.000027082149
  19     -0.000000184402
  20     -0.000002030334
  21     -0.000017906407
  22     -0.000000488618
  23     -0.000000489904
  24     -0.000003313088
  25      0.000000099585
  26      0.000000864988
  27      0.000004773498
  28      0.000000364999
  29      0.000018881377
  30     -0.000038190184
  31     -0.000024422728
  32      0.000059570894
  33      0.000002614830
  34      0.000066194684
  35     -0.000001269247
  36      0.000002661035
  37      0.000008036325
  38     -0.000002120412
  39      0.000001110177
  40     -0.000002397042
  41      0.000001664947
  42      0.000000262031
  43      0.000018315296
  44     -0.000037078413
  45     -0.000023644727
  46      0.000061527095
  47     -0.000002455479
  48     -0.000059834484
  49     -0.000000780943
  50     -0.000002660195
  51     -0.000007893532
  52     -0.000001969020
  53     -0.000000704934
  54     -0.000002430105
  55      0.000001780242
  56      0.000000030583
 Ene=  -0.11480996435989E+01
 Spin= Alpha
 Occup=    0.000000
   1     -0.000000048305
   2      0.000000134200
   3      0.000000075513
   4      0.000000455773
   5     -0.000013529355
   6      0.000053162253
   7     -0.000000014116
   8      0.000002041761
   9     -0.000021322097
  10     -0.000000149152
  11     -0.000003263230
  12     -0.000000155410
  13      0.000000203458
  14     -0.000002312951
  15     -0.000000016617
  16      0.000000015108
  17     -0.000000022592
  18      0.000001676762
  19     -0.000013110207
  20     -0.000115064660
  21      0.000000385497
  22     -0.000005576115
  23     -0.000006670333
  24      0.000000089693
  25      0.000003655971
  26      0.000000169789
  27     -0.000000096968
  28      0.000000433900
  29      0.000013337384
  30     -0.000025835887
  31     -0.000022278545
  32     -0.000054068629
  33     -0.000001961164
  34      0.000000372559
  35     -0.000008604021
  36      0.000003380752
  37      0.000009651246
  38      0.000000135704
  39      0.000002905269
  40     -0.000002080770
  41      0.000000266134
  42      0.000003076710
  43     -0.000013437629
  44      0.000026014404
  45      0.000022396872
  46      0.000053351254
  47     -0.000002950126
  48      0.000007843936
  49      0.000008163399
  50      0.000003575491
  51      0.000010410403
  52      0.000000156773
  53      0.000002772114
  54      0.000002396767
  55     -0.000000709268
  56      0.000002912057
 Ene=  -0.71030618999221E+00
 Spin= Alpha
 Occup=    0.999999
   1      0.128381339260
   2     -0.312241162457
   3     -0.018799598702
   4     -0.057243034664
   5     -0.001541265006
   6      0.000172960466
   7     -0.001922834469
   8      0.000093076947
   9      0.000121726377
  10      0.002861365431
  11      0.000265912903
  12     -0.008177952093
  13     -0.003226460617
  14     -0.000170102676
  15     -0.088574260839
  16      0.187810192904
  17      0.194335752161
  18      0.266288930231
  19      0.012602957379
  20      0.002822675933
  21      0.129775866761
  22      0.006087290846
  23      0.001403528925
  24      0.007482099284
  25     -0.000477731734
  26      0.005081276446
  27     -0.013965541369
  28     -0.001280302943
  29     -0.067512808904
  30      0.142808058324
  31      0.141726812558
  32     -0.094413367786
  33      0.103928086099
  34      0.096406461243
  35     -0.046390153092
  36      0.051190483759
  37      0.047439823493
  38      0.000507255043
  39      0.004771856316
  40     -0.007509414362
  41      0.000404143777
  42      0.005058129020
  43     -0.067945872981
  44      0.143732170366
  45      0.142773624052
  46     -0.084814818344
  47     -0.112636984731
  48     -0.098504462941
  49     -0.041848856173
  50     -0.055400177516
  51     -0.048481128169
  52      0.000428299912
  53     -0.004176761548
  54     -0.008029202098
  55      0.001270566972
  56     -0.004852764502
 Ene=  -0.67543881100365E+00
 Spin= Alpha
 Occup=    0.000219
   1      0.000000052905
   2     -0.000001087597
   3      0.000005715622
   4      0.000109073447
   5     -0.002999140177
   6     -0.003069664093
   7      0.000014868672
   8     -0.000358193632
   9     -0.000488422368
  10     -0.000001293748
  11     -0.000232917374
  12     -0.000010793263
  13      0.000018230435
  14     -0.000192895829
  15     -0.000010911171
  16      0.000022746068
  17      0.000026814372
  18      0.000260424150
  19     -0.004163842929
  20     -0.004943138438
  21      0.000144545637
  22     -0.002394700985
  23     -0.002682028975
  24      0.000004330225
  25      0.000219144562
  26      0.000011285761
  27     -0.000019513762
  28      0.000188249305
  29     -0.001183580960
  30      0.002486244961
  31      0.002811323575
  32     -0.002802293046
  33      0.001896080396
  34      0.001838423156
  35     -0.001578432081
  36      0.000867949663
  37      0.000817153560
  38      0.000040078374
  39      0.000111023366
  40     -0.000137409804
  41     -0.000037478836
  42      0.000121452754
  43      0.001189122041
  44     -0.002497590416
  45     -0.002826599567
  46      0.002585565562
  47      0.002185513192
  48      0.001869869087
  49      0.001475097094
  50      0.001026766654
  51      0.000838905134
  52     -0.000038292683
  53      0.000099713002
  54      0.000150187899
  55      0.000013460982
  56      0.000123711047
 Ene=  -0.67190311218091E+00
 Spin= Alpha
 Occup=    0.999769
   1      0.000046807002
   2     -0.000181382466
   3      0.000377030578
   4      0.008259936042
   5     -0.223821690437
   6     -0.202465609014
   7      0.001188269752
   8     -0.029016058008
   9     -0.026510543939
  10     -0.000164825497
  11     -0.012947022982
  12     -0.000636173533
  13      0.001236861733
  14     -0.014335882127
  15     -0.000736119379
  16      0.001540438960
  17      0.001789190242
  18      0.017275848853
  19     -0.289522769825
  20     -0.261798617951
  21      0.009790465078
  22     -0.168234998875
  23     -0.152106954678
  24      0.000252216099
  25      0.012347938412
  26      0.000667231957
  27     -0.001371945342
  28      0.013615864440
  29     -0.081834309811
  30      0.171701127668
  31      0.194873853609
  32     -0.220248270558
  33      0.129071223193
  34      0.121531873541
  35     -0.119679044171
  36      0.059263029567
  37      0.056256870465
  38      0.002735406126
  39      0.008311401735
  40     -0.009372204336
  41     -0.003207369775
  42      0.008722756449
  43      0.082147379482
  44     -0.172345404150
  45     -0.195741059250
  46      0.205740667816
  47      0.148553191678
  48      0.126502493416
  49      0.112713226192
  50      0.069925665875
  51      0.058989287660
  52     -0.002513430565
  53      0.007584985102
  54      0.010308450234
  55      0.001540958598
  56      0.008942880135
 Ene=  -0.65395554562979E+00
 Spin= Alpha
 Occup=    0.999990
   1      0.000151574998
   2     -0.000363351436
   3     -0.000076632817
   4      0.003312025499
   5     -0.077957020705
   6      0.086341674035
   7      0.000981212657
   8     -0.032239584276
   9      0.035818808583
  10     -0.000026790594
  11      0.001093651884
  12     -0.000022109339
  13      0.000130004452
  14     -0.000987925898
  15      0.000122750605
  16     -0.000246202266
  17     -0.000263766778
  18      0.000885298311
  19     -0.066444627014
  20      0.073416982451
  21      0.000661157095
  22     -0.037552780271
  23      0.041488746638
  24     -0.000095209692
  25     -0.004805268227
  26     -0.000171503107
  27     -0.000274585834
  28      0.004337424102
  29     -0.000236189474
  30      0.000494579132
  31      0.000520142402
  32      0.001551132518
  33     -0.076465603135
  34      0.086200937906
  35      0.001049752560
  36     -0.042898809278
  37      0.048337670247
  38     -0.005235818935
  39      0.002443732721
  40     -0.000601178861
  41     -0.002872203304
  42     -0.002325652752
  43     -0.000098130551
  44      0.000204485026
  45      0.000192944534
  46      0.001927079251
  47     -0.077771470985
  48      0.085862912785
  49      0.001257725254
  50     -0.043657890672
  51      0.048194835750
  52      0.005307666622
  53      0.002275187462
  54      0.000704262032
  55      0.003203932874
  56     -0.001878588400
 Ene=  -0.64939298022708E+00
 Spin= Alpha
 Occup=    0.999991
   1     -0.042454957353
   2      0.102599382285
   3      0.025567357863
   4     -0.350181466845
   5     -0.011730753402
   6     -0.002046640117
   7     -0.055155806970
   8     -0.001524516176
   9     -0.000503837533
  10      0.002125505233
  11     -0.000129983459
  12      0.003940762988
  13     -0.004521000823
  14     -0.000253675637
  15     -0.072508763424
  16      0.151184855267
  17      0.195947547462
  18      0.328709876489
  19      0.016791582310
  20      0.004084006778
  21      0.164084291371
  22      0.008624535827
  23      0.002145620392
  24      0.007666551901
  25     -0.000405329148
  26      0.002952329270
  27     -0.013830372760
  28     -0.001344784556
  29      0.062792605803
  30     -0.130052048065
  31     -0.160228578259
  32     -0.056785058409
  33     -0.220160002091
  34     -0.198172974302
  35     -0.042621984942
  36     -0.115934002307
  37     -0.104042649948
  38      0.003316950357
  39     -0.001115268416
  40      0.014631447761
  41     -0.008633651103