[Molden Format]
[Title]
generated by TRESC, imaginary part2 of MOs of job CO3
 
[Atoms] AU
 C   1   6    0.3364484192    5.8882927452    0.3891081484
 O   2   8    2.6974300312    5.9862747024    0.4085979628
 O   3   8   -0.7714112401    7.4618585764    1.8371371576
 O   4   8   -0.6184572465    4.2284969646   -1.0743142370
[GTO]
  1 0
 s  5 1.0
     1238.4016938000        0.0059599745
      186.2900499200        0.0422621111
       42.2511763500        0.1866575214
       11.6765579300        0.4675815865
        3.5930506500        0.4422897287
 s  1 1.0
        0.4024514700        1.0000000000
 s  1 1.0
        0.1309018300        1.0000000000
 p  3 1.0
        9.4680970600        0.0570294585
        2.0103545100        0.3130471495
        0.5477100500        0.7605135301
 p  1 1.0
        0.1526861400        1.0000000000
 d  1 1.0
        0.8000000000        1.0000000000
 
  2 0
 s  5 1.0
     2266.1767785000        0.0060711540
      340.8701019100        0.0417308970
       77.3631351700        0.1850777598
       21.4796449400        0.4668774046
        6.6589433100        0.4435718061
 s  1 1.0
        0.8097597600        1.0000000000
 s  1 1.0
        0.2553077200        1.0000000000
 p  3 1.0
       17.7215043200        0.0628680198
        3.8635505400        0.3334973703
        1.0480920900        0.7412421661
 p  1 1.0
        0.2764154400        1.0000000000
 d  1 1.0
        1.2000000000        1.0000000000
 
  3 0
 s  5 1.0
     2266.1767785000        0.0060711540
      340.8701019100        0.0417308970
       77.3631351700        0.1850777598
       21.4796449400        0.4668774046
        6.6589433100        0.4435718061
 s  1 1.0
        0.8097597600        1.0000000000
 s  1 1.0
        0.2553077200        1.0000000000
 p  3 1.0
       17.7215043200        0.0628680198
        3.8635505400        0.3334973703
        1.0480920900        0.7412421661
 p  1 1.0
        0.2764154400        1.0000000000
 d  1 1.0
        1.2000000000        1.0000000000
 
  4 0
 s  5 1.0
     2266.1767785000        0.0060711540
      340.8701019100        0.0417308970
       77.3631351700        0.1850777598
       21.4796449400        0.4668774046
        6.6589433100        0.4435718061
 s  1 1.0
        0.8097597600        1.0000000000
 s  1 1.0
        0.2553077200        1.0000000000
 p  3 1.0
       17.7215043200        0.0628680198
        3.8635505400        0.3334973703
        1.0480920900        0.7412421661
 p  1 1.0
        0.2764154400        1.0000000000
 d  1 1.0
        1.2000000000        1.0000000000
 
[5D]
[7F]
[9G]
[MO]
 Ene=   0.10136363200697E+01
 Spin= Alpha
 Occup=    0.000000
   1     -0.000000117352
   2      0.000043645175
   3      0.000030026086
   4      0.000038411310
   5     -0.000707353458
   6     -0.000636214352
   7     -0.000170217769
   8      0.003461893435
   9      0.003107873179
  10     -0.000000511758
  11      0.000840318562
  12      0.000052252641
  13     -0.000067761275
  14      0.000933606158
  15      0.000009437427
  16     -0.000042166565
  17      0.000012348100
  18     -0.000115080136
  19      0.001090060856
  20      0.000961829017
  21      0.000270002938
  22     -0.003677159972
  23     -0.003286098757
  24     -0.000004814715
  25     -0.000349403171
  26     -0.000017936045
  27      0.000035045449
  28     -0.000388075349
  29     -0.000437981624
  30      0.002142175072
  31     -0.003635385592
  32     -0.003256699402
  33      0.001262027883
  34      0.001231651327
  35      0.003778924668
  36     -0.002005737960
  37     -0.001912361218
  38      0.000020428131
  39      0.000050565828
  40     -0.000118659207
  41     -0.000012745323
  42      0.000050864047
  43      0.000441262474
  44     -0.002156294166
  45      0.003623326822
  46      0.003154381285
  47      0.001542964463
  48      0.001301929925
  49     -0.003589520882
  50     -0.002340231424
  51     -0.002005801506
  52     -0.000017959683
  53      0.000039500455
  54      0.000126023627
  55      0.000001542296
  56      0.000047971096
 Ene=   0.10403029487367E+01
 Spin= Alpha
 Occup=    0.000000
   1      0.000017314322
   2     -0.002039801883
   3     -0.002251199225
   4      0.000665171569
   5      0.000034786222
   6      0.000010437642
   7     -0.002705129890
   8     -0.000146841690
   9     -0.000036932888
  10     -0.000147341723
  11      0.000040896879
  12     -0.001245910938
  13      0.000519536049
  14      0.000033578379
  15      0.000164652109
  16     -0.000850652989
  17      0.002552914265
  18     -0.000465385173
  19      0.000037214370
  20      0.000053776385
  21      0.000784633786
  22     -0.000034270777
  23     -0.000067576583
  24     -0.000031684983
  25     -0.000002116674
  26      0.000027915343
  27      0.000048202450
  28      0.000002338412
  29     -0.000307863760
  30      0.001267673909
  31     -0.000272980080
  32     -0.001556637222
  33      0.001322207844
  34      0.001260493203
  35      0.003412051980
  36     -0.001718025929
  37     -0.001680666668
  38      0.000059458414
  39      0.000078767246
  40      0.000043570732
  41     -0.000118746126
  42      0.000081276489
  43     -0.000321011730
  44      0.001334842929
  45     -0.000366317687
  46     -0.001335872780
  47     -0.001561353450
  48     -0.001377747603
  49      0.003062805870
  50      0.002160823183
  51      0.001862584377
  52      0.000052303543
  53     -0.000079156666
  54      0.000027332328
  55     -0.000091160175
  56     -0.000093267509
 Ene=   0.10577410605009E+01
 Spin= Alpha
 Occup=    0.000000
   1      0.000012692623
   2      0.000490091983
   3      0.000850281668
   4     -0.004654854596
   5      0.078724182383
   6      0.070933842548
   7      0.023630358483
   8     -0.401231320131
   9     -0.361672007806
  10     -0.000973746348
  11     -0.083365314055
  12     -0.003832671305
  13      0.008119754507
  14     -0.092433488289
  15      0.000279070658
  16     -0.001617539838
  17     -0.000017778991
  18      0.008494685487
  19     -0.185116909305
  20     -0.166610295929
  21     -0.018750580549
  22      0.375194184328
  23      0.337863092042
  24      0.000383439925
  25      0.021502788854
  26      0.000964015736
  27     -0.002257180191
  28      0.023825651686
  29      0.000209714555
  30      0.014338821301
  31      0.162310798629
  32     -0.024229190163
  33     -0.131331586962
  34     -0.117638255975
  35      0.043211009099
  36      0.239458476844
  37      0.214304874659
  38     -0.000479714571
  39     -0.000784615898
  40      0.019583877485
  41     -0.003304518350
  42     -0.000380762391
  43     -0.000581785048
  44     -0.012069666321
  45     -0.164076540302
  46      0.040853102381
  47     -0.130270438213
  48     -0.118415786064
  49     -0.074138577359
  50      0.236110565638
  51      0.214763157538
  52      0.000348313439
  53      0.000960645080
  54     -0.019593491349
  55      0.003510397779
  56      0.000611636986
 Ene=   0.10926102844928E+01
 Spin= Alpha
 Occup=    0.000000
   1     -0.000005612114
   2      0.000066896427
   3      0.000342289974
   4     -0.000129788245
   5      0.000438259940
   6     -0.000497911007
   7      0.000786585909
   8     -0.006976300206
   9      0.007811201690
  10      0.000041932940
  11     -0.000046677159
  12      0.000049208081
  13     -0.000081106639
  14      0.000048350759
  15      0.000002841160
  16     -0.000025730291
  17     -0.000268621646
  18      0.000149093854
  19     -0.002785550119
  20      0.003045558767
  21     -0.000334727443
  22      0.005280694074
  23     -0.005811916835
  24      0.000005219043
  25     -0.000167204880
  26     -0.000028123123
  27     -0.000023702271
  28      0.000151895897
  29     -0.000031808050
  30      0.000203840194
  31     -0.000266380131
  32      0.000395144200
  33     -0.003000814084
  34      0.003547572452
  35     -0.000770064729
  36      0.005726244475
  37     -0.006554370905
  38     -0.000281440504
  39      0.000055276560
  40     -0.000035747345
  41     -0.000136515559
  42     -0.000087699916
  43     -0.000027000360
  44      0.000178985075
  45     -0.000231821644
  46      0.000349027461
  47     -0.003092831492
  48      0.003359487987
  49     -0.000684090935
  50      0.005753445565
  51     -0.006411870019
  52      0.000268254418
  53      0.000075181514
  54      0.000035221769
  55      0.000168664944
  56     -0.000033353222
 Ene=   0.11080822818961E+01
 Spin= Alpha
 Occup=    0.000000
   1     -0.001125971262
   2      0.016549654010
   3      0.068759050732
   4     -0.019615134696
   5     -0.000402369641
   6      0.001230964516
   7      0.089025869763
   8      0.007229755251
   9     -0.012065215686
  10      0.007249048564
  11     -0.001928660636
  12      0.010950883418
  13     -0.014750773677
  14     -0.002702323108
  15     -0.000836746226
  16      0.002903106806
  17     -0.052961085726
  18      0.011575359402
  19      0.002121062984
  20     -0.006458559366
  21     -0.027467579438
  22     -0.003122754506
  23      0.011866398091
  24      0.001501119373
  25      0.000744835312
  26     -0.003721435335
  27     -0.001802136766
  28      0.000101015709
  29     -0.004631597785
  30      0.032157827625
  31     -0.046952550778
  32      0.045912739789
  33      0.012457179568
  34      0.003417460528
  35     -0.091564343098
  36     -0.008225605813
  37      0.007731408034
  38     -0.000882471790
  39     -0.002445004178
  40     -0.000451611411
  41      0.002472304434
  42     -0.002460496997
  43     -0.004886683628
  44      0.033002669525
  45     -0.051084285455
  46      0.045226025879
  47     -0.005533221916
  48     -0.012610854908
  49     -0.090126055623
  50     -0.006016057074
  51      0.009538841198
  52     -0.001401170192
  53      0.002443476292
  54     -0.000721351495
  55      0.001709844866
  56      0.002913593998
 Ene=   0.11250092629256E+01
 Spin= Alpha
 Occup=    0.000000
   1      0.000004764954
   2      0.000064139776
   3      0.000003186722
   4     -0.000049079503
   5      0.000056449433
   6     -0.000045925857
   7      0.000184587496
   8     -0.001121726329
   9      0.000468260574
  10     -0.000043087942
  11      0.000031707400
  12      0.000070248467
  13     -0.000033859991
  14      0.000042496093
  15      0.000021552416
  16     -0.000128497820
  17      0.000093506576
  18     -0.000012630234
  19     -0.001250159163
  20     -0.000461648660
  21     -0.000085015181
  22      0.002055171960
  23      0.000668758176
  24      0.000011117031
  25      0.000071927686
  26      0.000002251471
  27     -0.000013895559
  28      0.000119456742
  29      0.000027433043
  30     -0.000138974858
  31      0.000368577062
  32      0.001234084997
  33      0.000405933632
  34      0.000390173455
  35     -0.001725526886
  36     -0.000357328701
  37     -0.000824149419
  38     -0.000062002133
  39     -0.000044959685
  40     -0.000034216975
  41      0.000082143449
  42     -0.000047026742
  43     -0.000003316254
  44      0.000032216173
  45     -0.000277889528
  46     -0.001008544756
  47     -0.000200458805
  48      0.001090754224
  49      0.001342998228
  50      0.000330785931
  51     -0.001600255875
  52      0.000080358494
  53     -0.000032822660
  54      0.000034503840
  55     -0.000041007757
  56     -0.000063146106
 Ene=   0.11254631748490E+01
 Spin= Alpha
 Occup=    0.000000
   1     -0.000028166885
   2     -0.001114495770
   3     -0.001584335059
   4      0.000855391717
   5      0.000153535876
   6      0.000074097123
   7     -0.003188632408
   8      0.003790159605
   9      0.004088954888
  10     -0.000223839346
  11     -0.000835296989
  12     -0.001100892101
  13      0.000368505930
  14     -0.000944345409
  15     -0.000202424100
  16      0.001244297436
  17      0.000065467773
  18     -0.000024267079
  19      0.011800413243
  20      0.010846449989
  21      0.001254192189
  22     -0.018477368906
  23     -0.017090110864
  24     -0.000045960923
  25     -0.001153181039
  26      0.000043139497
  27      0.000240161387
  28     -0.001250500772
  29     -0.000202448791
  30      0.000917025435
  31     -0.003172903347
  32     -0.016996576626
  33     -0.005732737703
  34     -0.006370634953
  35      0.024158455402
  36      0.008555956996
  37      0.008647088361
  38      0.000678427345
  39      0.000649568139
  40      0.000513819583
  41     -0.001249599889
  42      0.000671453418
  43      0.000121650585
  44     -0.001049389838
  45      0.004429584257
  46      0.013298710138
  47     -0.007035737209
  48     -0.004459278815
  49     -0.017435924289
  50      0.010154617239
  51      0.006991248700
  52     -0.000434812636
  53      0.000590830068
  54     -0.000434222972
  55      0.000938942167
  56      0.000681575081
 Ene=   0.11420807621753E+01
 Spin= Alpha
 Occup=    0.000000
   1      0.000200070672
   2     -0.002959248861
   3     -0.011669802343
   4      0.002224079179
   5      0.000050621190
   6      0.000038417460
   7     -0.009168422486
   8      0.000111685634
   9     -0.000503420026
  10     -0.000972217772
  11      0.000102868061
  12     -0.001521644958
  13      0.001998101585
  14      0.000181187491
  15      0.000372754248
  16     -0.001962331781
  17      0.008382771843
  18     -0.001547892516
  19      0.000198323019
  20     -0.000142434065
  21      0.002677560245
  22     -0.000358290723
  23      0.000260395899
  24     -0.000154911438
  25     -0.000015319715
  26      0.000475913936
  27      0.000164631990
  28     -0.000011301823
  29      0.000704340910
  30     -0.004937494562
  31      0.008696886601
  32     -0.005235404756
  33     -0.000872851039
  34     -0.001034591128
  35      0.010570885403
  36     -0.000773074957
  37     -0.000277470183
  38      0.000143484322
  39      0.000308460114
  40      0.000116965237
  41     -0.000250045189
  42      0.000337100022
  43      0.000703374466
  44     -0.004925008374
  45      0.008715783337
  46     -0.005185938290
  47      0.000817606040
  48      0.000486208608
  49      0.010300224207
  50      0.000926238113
  51      0.001254811221
  52      0.000094402908
  53     -0.000326801320
  54      0.000081515097
  55     -0.000200198701
  56     -0.000362203523
 Ene=   0.11819734396107E+01
 Spin= Alpha
 Occup=    0.000000
   1     -0.000008859084
   2      0.000112510645
   3      0.000459115429
   4      0.000025892822
   5     -0.000213020154
   6      0.000237008117
   7     -0.000043157542
   8      0.002941907258
   9     -0.003267035161
  10      0.000003349446
  11     -0.000132734011
  12     -0.000010456732
  13     -0.000005879666
  14      0.000121275087
  15     -0.000035199439
  16      0.000229088008
  17     -0.000455866702
  18     -0.000076121494
  19      0.002695774325
  20     -0.003005565248
  21      0.000243866459
  22     -0.003799132264
  23      0.004244360016
  24     -0.000001178549
  25      0.000152868300
  26     -0.000001931615
  27      0.000015042487
  28     -0.000135459770
  29     -0.000023845205
  30      0.000154604855
  31     -0.000308339978
  32     -0.000031038978
  33      0.000728363845
  34     -0.000803659387
  35      0.000024261370
  36     -0.001626982811
  37      0.001916156136
  38      0.000098896170
  39      0.000012222382
  40      0.000010093809
  41      0.000049577379
  42     -0.000011899278
  43     -0.000023852846
  44      0.000154738063
  45     -0.000307263753
  46     -0.000047109819
  47      0.000781604029
  48     -0.000865724738
  49      0.000050950838
  50     -0.001801464882
  51      0.001878586058
  52     -0.000093319521
  53      0.000016780003
  54     -0.000013231574
  55     -0.000063071435
  56     -0.000016297277
 Ene=   0.11970476155014E+01
 Spin= Alpha
 Occup=    0.000000
   1      0.000380385004
   2     -0.006421347984
   3     -0.023597309488
   4     -0.000921305092
   5      0.000512610529
   6      0.000477425044
   7     -0.002553157119
   8     -0.001522806358
   9     -0.001195186513
  10      0.000315877077
  11     -0.001027163836
  12     -0.000382714579
  13     -0.000394836074
  14     -0.001182915595
  15      0.001534268276
  16     -0.010323220885
  17      0.022120706623
  18      0.000873815729
  19     -0.000611012695
  20     -0.000520251882
  21     -0.007685714740
  22      0.001124919705
  23      0.001147376628
  24      0.000105901778
  25      0.000173806795
  26      0.000336370964
  27     -0.000266248833
  28      0.000190952291
  29      0.001110643098
  30     -0.007117026055
  31      0.015208443758
  32     -0.000418835327
  33     -0.000816748461
  34     -0.000670167845
  35      0.002350573164
  36     -0.001250500607
  37     -0.001282017806
  38     -0.000155047562
  39      0.000096517556
  40      0.000228011416
  41      0.000208097181
  42      0.000128991328
  43      0.001033803121
  44     -0.007219856100
  45      0.015267986501
  46      0.000920822421
  47     -0.001724534579
  48     -0.001528495991
  49      0.000332647106
  50      0.005815324968
  51      0.005133665580
  52     -0.000249987521
  53      0.000026213072
  54     -0.000110688478
  55      0.000458309539
  56      0.000054782319
 Ene=   0.11979525135179E+01
 Spin= Alpha
 Occup=    0.000000
   1     -0.006457212237
   2      0.109198204334
   3      0.401157301764
   4      0.017469451625
   5      0.000664360254
   6      0.000226971081
   7      0.040645494422
   8      0.002803623698
   9      0.000096754992
  10     -0.006602572260
  11     -0.000012055533
  12      0.004266021368
  13      0.010497165756
  14      0.000829946187
  15     -0.026468922989
  16      0.178641950780
  17     -0.380410840950
  18     -0.015700689226
  19      0.000182886246
  20     -0.000145166271
  21      0.134898881913
  22      0.004320001306
  23      0.001141825167
  24     -0.001921192147
  25      0.000275062486
  26     -0.005311750571
  27      0.004440579165
  28      0.000368103951
  29     -0.018137916242
  30      0.120880255429
  31     -0.257789182545
  32     -0.007458857304
  33     -0.009073577961
  34     -0.008560356249
  35     -0.019634650886
  36      0.059881671683
  37      0.055494621451
  38      0.003692173941
  39     -0.000516945379
  40     -0.000900407970
  41     -0.006091039150
  42     -0.001006183845
  43     -0.018040222679
  44      0.120332212227
  45     -0.256450649500
  46     -0.007199419186
  47      0.008781574573
  48      0.007479440353
  49     -0.015270260585
  50     -0.061825461273
  51     -0.054050168857
  52      0.003595075482
  53      0.000450116292
  54     -0.000881980538
  55     -0.006118873240
  56      0.000068835600
 Ene=   0.12188053540241E+01
 Spin= Alpha
 Occup=    0.000000
   1      0.000003170908
   2     -0.000051130351
   3     -0.000186055704
   4     -0.000011325525
   5     -0.000001853758
   6     -0.000006307615
   7      0.000007243885
   8     -0.000013264497
   9      0.000043522053
  10      0.000021461035
  11      0.000005857303
  12      0.000002642871
  13      0.000000554568
  14      0.000007998138
  15      0.000012441721
  16     -0.000083887638
  17      0.000166284712
  18      0.000007782195
  19      0.000000004959
  20      0.000026161448
  21     -0.000065832992
  22     -0.000003935671
  23     -0.000045406025
  24     -0.000010236580
  25     -0.000002618824
  26     -0.000001331815
  27     -0.000007997263
  28     -0.000002628183
  29      0.000007704040
  30     -0.000054248588
  31      0.000119419341
  32      0.000010947438
  33     -0.000136266306
  34      0.000173427049
  35     -0.000004879340
  36      0.000122232530
  37     -0.000219281933
  38     -0.000009127136
  39      0.000000544158
  40     -0.000001969968
  41     -0.000000519126
  42     -0.000000862757
  43      0.000009207159
  44     -0.000059292122
  45      0.000131375143
  46      0.000017642321
  47      0.000119158709
  48     -0.000135921676
  49     -0.000016786810
  50     -0.000094230661
  51      0.000152856058
  52     -0.000006707188
  53     -0.000000133688
  54      0.000000114379
  55      0.000000687146
  56      0.000000764456
 Ene=   0.15254119445844E+01
 Spin= Alpha
 Occup=    0.000000
   1     -0.007787981767
   2      0.080927270882
   3      0.187103768984
   4     -0.198462274093
   5     -0.008212443460
   6     -0.001531145716
   7     -1.391012810337
   8     -0.058854466498
   9     -0.011543755217
  10      0.051434994160
  11     -0.005566697392
  12      0.102900901946
  13     -0.110387396027
  14     -0.010374967879
  15      0.080081126761
  16     -0.611255293772
  17      1.663919019556
  18      0.028013531611
  19      0.001176195982
  20      0.000301617299
  21     -0.522766209878
  22     -0.021210998921
  23     -0.004480975130
  24      0.016720254328
  25     -0.000442980202
  26     -0.002291605911
  27     -0.028380860136
  28     -0.002143566809
  29     -0.055067293006
  30      0.422511698200
  31     -1.044728174563
  32     -0.101854780923
  33     -0.057773955081
  34     -0.048615636653
  35      0.165592671546
  36      0.383947571256
  37      0.340110396210
  38     -0.003578993282
  39     -0.009855626339
  40      0.023471604713
  41      0.001930532273
  42     -0.010072470494
  43     -0.055241433233
  44      0.423590077081
  45     -1.047326494673
  46     -0.106819097871
  47      0.048956886551
  48      0.047479806490
  49      0.200837533248
  50     -0.368912477120
  51     -0.337736776015
  52     -0.003416702815
  53      0.008165540880
  54      0.024377744958
  55     -0.000007699113
  56      0.009914035596
 Ene=   0.15441761580702E+01
 Spin= Alpha
 Occup=    0.000000
   1     -0.000000165551
   2      0.000002786002
   3      0.000009610198
   4      0.000006243476
   5     -0.000001558880
   6     -0.000000499701
   7      0.000041685239
   8     -0.000016045653
   9     -0.000002427008
  10      0.000354166118
  11     -0.000004142657
  12      0.000041301551
  13      0.000206394771
  14      0.000031329421
  15     -0.000003373873
  16      0.000024565974
  17     -0.000061286321
  18     -0.000001398069
  19     -0.000002955992
  20     -0.000002096176
  21      0.000019506694
  22      0.000003238261
  23      0.000002063566
  24      0.000029501489
  25     -0.000001656608
  26      0.000005235086
  27      0.000017858563
  28     -0.000001830604
  29      0.000000392254
  30     -0.000006529654
  31      0.000030808720
  32      0.000003544464
  33     -0.000091773985
  34      0.000106795677
  35     -0.000007800322
  36      0.000154558357
  37     -0.000197435487
  38     -0.000069385204
  39      0.000042683908
  40     -0.000009011458
  41     -0.000036700756
  42     -0.000042385385
  43      0.000001263874
  44     -0.000007326667
  45      0.000007544493
  46      0.000003214676
  47      0.000078899620
  48     -0.000088700782
  49     -0.000006203629
  50     -0.000143448573
  51      0.000167348706
  52     -0.000064566284
  53     -0.000041604697
  54     -0.000010730729
  55     -0.000042434965
  56      0.000033384812
 Ene=   0.15586451942235E+01
 Spin= Alpha
 Occup=    0.000000
   1     -0.000036533483
   2      0.000041872207
   3      0.000781946047
   4      0.007174423410
   5     -0.146496132447
   6     -0.131925880101
   7      0.052638623232
   8     -1.105919136019
   9     -0.995784091041
  10      0.006927044089
  11      0.093778832151
  12      0.005605399343
  13     -0.006147413746
  14      0.104156487845
  15     -0.000113821860
  16      0.000873150397
  17     -0.001020324849
  18      0.003635163716
  19     -0.073963541405
  20     -0.066609064770
  21     -0.012451567115
  22      0.269763442582
  23      0.242834026471
  24      0.000410552483
  25     -0.012892002092
  26     -0.000406713929
  27      0.001727673739
  28     -0.014190675116
  29      0.070170967366
  30     -0.540266211052
  31      1.545561490067
  32     -0.057851832355
  33     -0.013861662723
  34     -0.011156332745
  35      0.373475102315
  36     -0.228373000009
  37     -0.218757454617
  38     -0.005642992371
  39      0.015152600561
  40     -0.017781550047
  41      0.009887347361
  42      0.015320892229
  43     -0.070197779646
  44      0.540669723603
  45     -1.546147133594
  46      0.059071555484
  47     -0.009189993492
  48     -0.009580453311
  49     -0.350851906716
  50     -0.261136428051
  51     -0.222010024941
  52      0.003482369052
  53      0.011972751704
  54      0.018818763047
  55     -0.013832810391
  56      0.014601642381
 Ene=   0.15679909422649E+01
 Spin= Alpha
 Occup=    0.000000
   1      0.000000673765
   2     -0.000004001437
   3     -0.000010192321
   4     -0.000008644379
   5      0.000402658553
   6      0.000294467907
   7     -0.000042396732
   8      0.002574164333
   9      0.002634079364
  10      0.117712773439
  11     -0.000677005965
  12      0.014393831770
  13      0.067845435153
  14      0.004237357941
  15     -0.000004474103
  16      0.000035806027
  17     -0.000101119872
  18     -0.000019608123
  19      0.000274001889
  20      0.000061207333
  21      0.000060836112
  22     -0.000375528920
  23     -0.000997515669
  24      0.013190462887
  25     -0.000527803192
  26      0.001599702924
  27      0.007573238755
  28      0.000919202302
  29     -0.000164271708
  30      0.001277944374
  31     -0.003724546190
  32     -0.000180392813
  33      0.007020524013
  34     -0.007718590244
  35     -0.001498864453
  36      0.020093252720
  37     -0.021240565563
  38     -0.024746270784
  39      0.015737693554
  40     -0.002470892844
  41     -0.013374444374
  42     -0.015046543812
  43      0.000171392523
  44     -0.001330600582
  45      0.003848886546
  46      0.000188720614
  47     -0.006993580378
  48      0.007842827816
  49      0.001430033545
  50     -0.018986778064
  51      0.022411668910
  52     -0.025573898744
  53     -0.015079111390
  54     -0.003680421906
  55     -0.015579094406
  56      0.012613588424
 Ene=   0.15787454490443E+01
 Spin= Alpha
 Occup=    0.000000
   1      0.000011125772
   2      0.000013109301
   3      0.000161200190
   4     -0.000065878805
   5     -0.000040476221
   6     -0.000034239403
   7     -0.000765664863
   8     -0.000359654677
   9     -0.000274291606
  10      0.000002066966
  11      0.000078548514
  12      0.000076517776
  13     -0.000081249585
  14     -0.000028707220
  15      0.000035320324
  16     -0.000282002923
  17      0.000839055693
  18      0.000006495422
  19     -0.000036177163
  20     -0.000011572317
  21     -0.000256572619
  22      0.000100423007
  23      0.000036082342
  24      0.000005322925
  25     -0.000020699234
  26     -0.000013849741
  27     -0.000016464498
  28      0.000011470311
  29     -0.000005315060
  30      0.000046795295
  31     -0.000110149641
  32     -0.000083565932
  33     -0.000107616854
  34     -0.000081029163
  35      0.000217296293
  36      0.000182270005
  37      0.000163546643
  38      0.000006386295
  39     -0.000007187282
  40      0.000029648193
  41      0.000013950826
  42     -0.000002747309
  43     -0.000044329906
  44      0.000347388867
  45     -0.000976869597
  46     -0.000048920696
  47      0.000090249473
  48      0.000095187205
  49      0.000029620847
  50     -0.000307744243
  51     -0.000295737623
  52     -0.000008902912
  53      0.000017430586
  54      0.000042550358
  55     -0.000002496990
  56      0.000007664951
 Ene=   0.15802700601947E+01
 Spin= Alpha
 Occup=    0.000000
   1     -0.000000474191
   2      0.000006110046
   3      0.000014190052
   4     -0.000020815057
   5      0.000251648341
   6      0.000227847331
   7     -0.000217354361
   8      0.002137679208
   9      0.001926246651
  10      0.000038645377
  11     -0.000226447589
  12      0.000002991044
  13      0.000028431115
  14     -0.000184638665
  15      0.000005469438
  16     -0.000042765162
  17      0.000125329165
  18     -0.000001542156
  19      0.000219742561
  20      0.000208704070
  21     -0.000013827309
  22     -0.000603568196
  23     -0.000531937793
  24      0.000007573734
  25      0.000015636593
  26     -0.000001281791
  27     -0.000000186470
  28     -0.000000243084
  29     -0.000133988526
  30      0.001038317426
  31     -0.003017549426
  32      0.000089779265
  33     -0.000029526415
  34     -0.000035552224
  35     -0.000664706546
  36      0.000521725549
  37      0.000471393912
  38     -0.000003621202
  39     -0.000015917660
  40      0.000059482990
  41     -0.000039666998
  42     -0.000027046831
  43      0.000126750975
  44     -0.000980920922
  45      0.002861569290
  46     -0.000115152663
  47     -0.000024774807
  48     -0.000015373422
  49      0.000659242986
  50      0.000500729731
  51      0.000436184974
  52     -0.000014498465
  53     -0.000019745288
  54     -0.000056534891
  55      0.000034617448
  56     -0.000009343937
 Ene=   0.15814274807307E+01
 Spin= Alpha
 Occup=    0.000000
   1      0.000000427921
   2      0.000002230949
   3      0.000011489785
   4     -0.000005178921
   5     -0.000000673902
   6      0.000031729367
   7     -0.000082961954
   8      0.000385097791
   9     -0.000219216230
  10      0.000062142548
  11     -0.001843434692
  12     -0.000042107619
  13     -0.000091073309
  14      0.001633708800
  15      0.000001019007
  16     -0.000013540910
  17      0.000066197710
  18      0.000000342047
  19      0.000109055504
  20     -0.000106468487
  21     -0.000000249240
  22     -0.000758506903
  23      0.000790779942
  24      0.000017633098
  25      0.000554330825
  26      0.000020256788
  27      0.000042189957
  28     -0.000494692642
  29     -0.000007808886
  30      0.000063850024
  31     -0.000192876978
  32     -0.000009084680
  33      0.000152421350
  34     -0.000182889457
  35     -0.000025650888
  36      0.000056216625
  37      0.000027303254
  38     -0.000310941715
  39     -0.000050943376
  40     -0.000038482750
  41     -0.000182380807