[Molden Format]
[Title]
generated by TRESC, real part2 of MOs of job CO3
 
[Atoms] AU
 C   1   6    0.3364484192    5.8882927452    0.3891081484
 O   2   8    2.6974300312    5.9862747024    0.4085979628
 O   3   8   -0.7714112401    7.4618585764    1.8371371576
 O   4   8   -0.6184572465    4.2284969646   -1.0743142370
[GTO]
  1 0
 s  5 1.0
     1238.4016938000        0.0059599745
      186.2900499200        0.0422621111
       42.2511763500        0.1866575214
       11.6765579300        0.4675815865
        3.5930506500        0.4422897287
 s  1 1.0
        0.4024514700        1.0000000000
 s  1 1.0
        0.1309018300        1.0000000000
 p  3 1.0
        9.4680970600        0.0570294585
        2.0103545100        0.3130471495
        0.5477100500        0.7605135301
 p  1 1.0
        0.1526861400        1.0000000000
 d  1 1.0
        0.8000000000        1.0000000000
 
  2 0
 s  5 1.0
     2266.1767785000        0.0060711540
      340.8701019100        0.0417308970
       77.3631351700        0.1850777598
       21.4796449400        0.4668774046
        6.6589433100        0.4435718061
 s  1 1.0
        0.8097597600        1.0000000000
 s  1 1.0
        0.2553077200        1.0000000000
 p  3 1.0
       17.7215043200        0.0628680198
        3.8635505400        0.3334973703
        1.0480920900        0.7412421661
 p  1 1.0
        0.2764154400        1.0000000000
 d  1 1.0
        1.2000000000        1.0000000000
 
  3 0
 s  5 1.0
     2266.1767785000        0.0060711540
      340.8701019100        0.0417308970
       77.3631351700        0.1850777598
       21.4796449400        0.4668774046
        6.6589433100        0.4435718061
 s  1 1.0
        0.8097597600        1.0000000000
 s  1 1.0
        0.2553077200        1.0000000000
 p  3 1.0
       17.7215043200        0.0628680198
        3.8635505400        0.3334973703
        1.0480920900        0.7412421661
 p  1 1.0
        0.2764154400        1.0000000000
 d  1 1.0
        1.2000000000        1.0000000000
 
  4 0
 s  5 1.0
     2266.1767785000        0.0060711540
      340.8701019100        0.0417308970
       77.3631351700        0.1850777598
       21.4796449400        0.4668774046
        6.6589433100        0.4435718061
 s  1 1.0
        0.8097597600        1.0000000000
 s  1 1.0
        0.2553077200        1.0000000000
 p  3 1.0
       17.7215043200        0.0628680198
        3.8635505400        0.3334973703
        1.0480920900        0.7412421661
 p  1 1.0
        0.2764154400        1.0000000000
 d  1 1.0
        1.2000000000        1.0000000000
 
[5D]
[7F]
[9G]
[MO]
 Ene=   0.10136363200697E+01
 Spin= Alpha
 Occup=    0.000000
   1     -0.000020988725
   2     -0.001521857828
   3     -0.000557085127
   4     -0.000345046947
   5     -0.000024758395
   6     -0.000012357753
   7      0.001290176694
   8      0.000115757200
   9      0.000067876798
  10      0.000527260612
  11      0.000009182561
  12     -0.000240299829
  13     -0.000866268917
  14     -0.000054712297
  15     -0.000458015452
  16      0.002171431227
  17     -0.001833655098
  18      0.003044902655
  19      0.000147957788
  20      0.000048463117
  21     -0.004267898437
  22     -0.000246311594
  23     -0.000102452113
  24      0.000011952087
  25     -0.000006635492
  26     -0.000007050909
  27     -0.000017293766
  28     -0.000008596960
  29     -0.000003848102
  30      0.000007180927
  31      0.000424854896
  32     -0.000352535443
  33      0.000144025156
  34      0.000090299882
  35     -0.000359198106
  36     -0.000499986062
  37     -0.000382146566
  38     -0.000030942850
  39     -0.000068067318
  40     -0.000067109954
  41      0.000072962716
  42     -0.000073472187
  43      0.000010203201
  44     -0.000063122934
  45      0.000555810026
  46     -0.000216211807
  47     -0.000124510745
  48     -0.000058674904
  49     -0.000545784328
  50      0.000400566699
  51      0.000320432980
  52     -0.000030175665
  53      0.000076870740
  54     -0.000056247636
  55      0.000060181655
  56      0.000087758244
 Ene=   0.10403029487367E+01
 Spin= Alpha
 Occup=    0.000000
   1      0.000000040458
   2     -0.000063597685
   3     -0.000059928776
   4      0.000042686282
   5     -0.000465410101
   6     -0.000416434260
   7     -0.000156026451
   8      0.001944527675
   9      0.001695867990
  10      0.000006707775
  11      0.000783599736
  12      0.000000292000
  13     -0.000064750801
  14      0.000872601431
  15      0.000002760216
  16     -0.000012850643
  17      0.000050305586
  18      0.000053799286
  19     -0.001166940582
  20     -0.001138791687
  21     -0.000023621995
  22      0.000789309342
  23      0.000831718558
  24     -0.000001819246
  25     -0.000054694518
  26     -0.000002563834
  27      0.000007097590
  28     -0.000063220593
  29     -0.000245088118
  30      0.001173216280
  31     -0.001869599809
  32      0.000709775453
  33      0.002194175447
  34      0.001964027937
  35     -0.001712815774
  36     -0.003381618431
  37     -0.002986618719
  38     -0.000081671239
  39     -0.000068842964
  40     -0.000174926500
  41      0.000184902652
  42     -0.000072243282
  43      0.000227061831
  44     -0.001099318380
  45      0.001859113276
  46     -0.001002261435
  47      0.002044741955
  48      0.001872271115
  49      0.002208919620
  50     -0.003105702834
  51     -0.002846208885
  52      0.000082880829
  53     -0.000091531673
  54      0.000169123949
  55     -0.000175065077
  56     -0.000108805533
 Ene=   0.10577410605009E+01
 Spin= Alpha
 Occup=    0.000000
   1     -0.000104538415
   2      0.000654189367
   3      0.005146980432
   4      0.006576817836
   5     -0.153600148641
   6     -0.138318255079
   7     -0.031725058359
   8      0.782964291307
   9      0.705207189794
  10      0.002391482154
  11      0.162489611263
  12      0.008489583916
  13     -0.016968756469
  14      0.180125208089
  15     -0.000168594398
  16      0.001104193437
  17     -0.005706617401
  18     -0.016725467013
  19      0.360957396693
  20      0.324847354229
  21      0.034712902085
  22     -0.731671653100
  23     -0.658737530245
  24     -0.000508749600
  25     -0.041909905259
  26     -0.002377059381
  27      0.004123788937
  28     -0.046475611436
  29     -0.001092602216
  30     -0.023742940808
  31     -0.320935751525
  32      0.053564951979
  33      0.258735073949
  34      0.230513766682
  35     -0.096808169473
  36     -0.469674719672
  37     -0.418743426588
  38      0.000819334545
  39      0.001272900496
  40     -0.038202887825
  41      0.006713679124
  42      0.000482225069
  43      0.000454636255
  44      0.027727613227
  45      0.315465425774
  46     -0.073060511236
  47      0.251918727565
  48      0.229748557378
  49      0.131732860234
  50     -0.458725449129
  51     -0.417874455970
  52     -0.000795053061
  53     -0.001609202067
  54      0.038207829344
  55     -0.006624572373
  56     -0.000887999485
 Ene=   0.10926102844928E+01
 Spin= Alpha
 Occup=    0.000000
   1     -0.000137634580
   2      0.001684378716
   3      0.008206614296
   4     -0.002584766529
   5     -0.000113240522
   6      0.000008658452
   7      0.012575134490
   8      0.000754585159
   9     -0.000223116166
  10      0.000954501084
  11     -0.000082497978
  12      0.001136938547
  13     -0.001711678016
  14     -0.000161923438
  15      0.000026328361
  16     -0.000336653401
  17     -0.006495629428
  18      0.001279328271
  19      0.000193884322
  20     -0.000093002675
  21     -0.003481539442
  22     -0.000379720389
  23      0.000186458363
  24      0.000181830636
  25      0.000022977530
  26     -0.000512998643
  27     -0.000265667332
  28     -0.000025035495
  29     -0.000708776459
  30      0.004593576690
  31     -0.006051944524
  32      0.006002067612
  33      0.001277733799
  34      0.002148346055
  35     -0.012046402685
  36     -0.000777671118
  37     -0.001477979708
  38     -0.000164009579
  39     -0.000293834746
  40     -0.000069413416
  41      0.000274605504
  42     -0.000318359803
  43     -0.000705848697
  44      0.004572968436
  45     -0.006037754713
  46      0.006241114648
  47     -0.000621876686
  48     -0.002371303677
  49     -0.012251035049
  50     -0.000527420018
  51      0.001879156013
  52     -0.000180700822
  53      0.000307290457
  54     -0.000049602126
  55      0.000211198293
  56      0.000369021265
 Ene=   0.11080822818961E+01
 Spin= Alpha
 Occup=    0.000000
   1      0.013179821812
   2     -0.193872192653
   3     -0.805264959795
   4      0.229523214414
   5      0.008884312363
   6      0.001167226382
   7     -1.043570856333
   8     -0.043233247329
   9     -0.008069168539
  10     -0.085125980747
  11      0.008487884298
  12     -0.129094440827
  13      0.174204033880
  14      0.015951166236
  15      0.009759847192
  16     -0.033768918645
  17      0.620181669163
  18     -0.135463966665
  19     -0.010607958941
  20     -0.004605457848
  21      0.321277690681
  22      0.020061556202
  23      0.007206790416
  24     -0.017462443660
  25     -0.001128136418
  26      0.043931319559
  27      0.020824803721
  28      0.001763399963
  29      0.055894330831
  30     -0.382611192846
  31      0.576257311873
  32     -0.521979044481
  33     -0.122936350804
  34     -0.095125468971
  35      1.055086448739
  36      0.050172622752
  37      0.014034715901
  38      0.013492489086
  39      0.027563310082
  40      0.007942996789
  41     -0.026797971953
  42      0.029231911352
  43      0.055503507817
  44     -0.380137085805
  45      0.571478886144
  46     -0.546934124427
  47      0.085685570675
  48      0.092762120006
  49      1.075791863448
  50      0.026567310580
  51     -0.007343423689
  52      0.013257949138
  53     -0.029450099034
  54      0.005714325196
  55     -0.022228512423
  56     -0.034037910157
 Ene=   0.11250092629256E+01
 Spin= Alpha
 Occup=    0.000000
   1      0.000021122327
   2     -0.000303506190
   3     -0.001268851946
   4      0.000343872635
   5     -0.001149558331
   6      0.000894880859
   7     -0.002556995038
   8      0.028007690462
   9     -0.004058881900
  10     -0.000124771070
  11     -0.001555382811
  12     -0.000235596378
  13      0.000368226733
  14     -0.001827972548
  15      0.000018622170
  16     -0.000081477691
  17      0.000945433803
  18     -0.001947970110
  19      0.039747475496
  20      0.022230156126
  21      0.003258293467
  22     -0.064435719263
  23     -0.034134574388
  24     -0.000061016232
  25     -0.002872388657
  26     -0.000082241019
  27      0.000383088946
  28     -0.003988987139
  29     -0.000443055373
  30      0.002410446879
  31     -0.010464167261
  32     -0.041083587144
  33     -0.011152445407
  34     -0.021544909877
  35      0.056731643664
  36      0.013075392085
  37      0.033754941876
  38      0.002132877202
  39      0.001472481287
  40      0.001301171234
  41     -0.002740520382
  42      0.001767912718
  43      0.000619269688
  44     -0.003610977398
  45      0.012319807031
  46      0.040770179077
  47     -0.007551466714
  48     -0.020585209442
  49     -0.055243849576
  50      0.008542994083
  51      0.032820491448
  52     -0.002057574267
  53      0.001587383986
  54     -0.001133991605
  55      0.002336376460
  56      0.002119426762
 Ene=   0.11254631748490E+01
 Spin= Alpha
 Occup=    0.000000
   1     -0.000248906893
   2      0.003674847017
   3      0.014878415395
   4     -0.003103088334
   5     -0.003622360457
   6     -0.003056792123
   7      0.022138995483
   8     -0.130647764780
   9     -0.119769461494
  10      0.001419636178
  11      0.028325744891
  12      0.003152456248
  13     -0.005018999568
  14      0.031312594030
  15     -0.000266243451
  16      0.001319080111
  17     -0.011298342769
  18      0.019551222625
  19     -0.376455710919
  20     -0.339512581141
  21     -0.031784497068
  22      0.591514323116
  23      0.533766713899
  24      0.000755902955
  25      0.036162071076
  26      0.001048249085
  27     -0.003903433748
  28      0.040006728907
  29      0.004082402223
  30     -0.024156596239
  31      0.109272019566
  32      0.477006745203
  33      0.218073238837
  34      0.181252770750
  35     -0.659654839324
  36     -0.313358117808
  37     -0.260943365567
  38     -0.018414838732
  39     -0.018983833179
  40     -0.016104857017
  41      0.036598776385
  42     -0.019305269076
  43     -0.006112326557
  44      0.037962979589
  45     -0.130873146207
  46     -0.480565437102
  47      0.175568757410
  48      0.171041855934
  49      0.655468533261
  50     -0.259672727046
  51     -0.251106260733
  52      0.017551673650
  53     -0.020363004498
  54      0.014031571040
  55     -0.032075410873
  56     -0.024241640331
 Ene=   0.11420807621753E+01
 Spin= Alpha
 Occup=    0.000000
   1     -0.000075103393
   2      0.001552749815
   3      0.004197264047
   4      0.002218403390
   5     -0.053836789718
   6      0.059809745619
   7     -0.026660594192
   8      0.792523971745
   9     -0.881386778131
  10     -0.000236122601
  11      0.006062808689
  12      0.000222540197
  13      0.000684393657
  14     -0.005297755529
  15     -0.000367616357
  16      0.002453811117
  17     -0.004218825099
  18     -0.011408913266
  19      0.339718017031
  20     -0.377930270776
  21      0.021982821991
  22     -0.610598388871
  23      0.679365798572
  24      0.000347005243
  25      0.020674619302
  26      0.000698365239
  27      0.001510488915
  28     -0.018528849258
  29     -0.000187924939
  30      0.001213857299
  31     -0.002708007455
  32     -0.012355630111
  33      0.365199616037
  34     -0.406409767307
  35      0.022144133582
  36     -0.658832614338
  37      0.734013432596
  38      0.032544534029
  39     -0.008314474202
  40      0.003674871384
  41      0.018140260713
  42      0.008605588471
  43     -0.000229001783
  44      0.001473269752
  45     -0.002991870785
  46     -0.012980173766
  47      0.364760966811
  48     -0.405036770500
  49      0.022966144231
  50     -0.659418787776
  51      0.731368810624
  52     -0.032644805961
  53     -0.007576625899
  54     -0.004255169005
  55     -0.019419239636
  56      0.005607634735
 Ene=   0.11819734396107E+01
 Spin= Alpha
 Occup=    0.000000
   1      0.000218959338
   2     -0.002612148826
   3     -0.011049852075
   4     -0.000461801061
   5     -0.000032084298
   6      0.000009233002
   7     -0.001342339744
   8      0.000109800677
   9     -0.000212906631
  10     -0.000137357016
  11     -0.000013852962
  12      0.000210315460
  13     -0.000004720559
  14      0.000000188697
  15      0.000870557602
  16     -0.005638033048
  17      0.011118796114
  18     -0.000409654723
  19      0.000116269882
  20     -0.000152640050
  21     -0.002754055774
  22     -0.000308858909
  23      0.000198117495
  24      0.000082083164
  25     -0.000001747431
  26      0.000175793531
  27     -0.000123405248
  28     -0.000018385847
  29      0.000582973748
  30     -0.003764163305
  31      0.007431025400
  32      0.000349731609
  33      0.000512927693
  34     -0.000689499444
  35      0.000523374154
  36     -0.001965146411
  37     -0.000443577953
  38     -0.000068625725
  39      0.000036925708
  40      0.000054154303
  41      0.000179230215
  42      0.000065606104
  43      0.000580188570
  44     -0.003749030254
  45      0.007401197295
  46      0.000370905855
  47     -0.000378192392
  48      0.000566294938
  49      0.000367457281
  50      0.001778437968
  51      0.000706924339
  52     -0.000081798083
  53     -0.000036323000
  54      0.000048798309
  55      0.000180301532
  56     -0.000036910796
 Ene=   0.11970476155014E+01
 Spin= Alpha
 Occup=    0.000000
   1     -0.003292340326
   2      0.055618133387
   3      0.204325594758
   4      0.007691849973
   5      0.000402883260
   6      0.000132693818
   7      0.022723529123
   8      0.000750153383
   9      0.000286618299
  10     -0.002831656015
  11     -0.000172951275
  12      0.002901587693
  13      0.004284114381
  14      0.000193740225
  15     -0.013274517186
  16      0.089302913154
  17     -0.191384301797
  18     -0.007279757914
  19     -0.000402571718
  20     -0.000064810924
  21      0.065820334328
  22      0.002975979494
  23      0.000593702811
  24     -0.000890024118
  25      0.000175917601
  26     -0.002829691017
  27      0.002129235573
  28      0.000237681213
  29     -0.009298851803
  30      0.062196755125
  31     -0.132222649498
  32     -0.001453650307
  33     -0.004410800735
  34     -0.003830867206
  35     -0.014027251923
  36      0.030767999776
  37      0.027902470078
  38      0.001755230438
  39     -0.000393879413
  40     -0.000483325552
  41     -0.002915543443
  42     -0.000651166419
  43     -0.009277507907
  44      0.062013481172
  45     -0.131817843421
  46     -0.001661919156
  47      0.003897222888
  48      0.003640441337
  49     -0.011346427111
  50     -0.031060383061
  51     -0.027759056891
  52      0.001754631149
  53      0.000366131769
  54     -0.000488127679
  55     -0.002939046173
  56      0.000197603955
 Ene=   0.11979525135179E+01
 Spin= Alpha
 Occup=    0.000000
   1      0.051051494510
   2     -0.863338865563
   3     -3.171615276991
   4     -0.138057074171
   5     -0.006117526980
   6     -0.001379110476
   7     -0.321760620061
   8     -0.012577084722
   9     -0.006304585076
  10      0.052194152431
  11      0.000299594457
  12     -0.033733961483
  13     -0.082994791285
  14     -0.006317127781
  15      0.209262484111
  16     -1.412332462345
  17      3.007543243321
  18      0.123837735297
  19      0.005664074874
  20      0.000073443260
  21     -1.066015553449
  22     -0.045672325935
  23     -0.007314806159
  24      0.015185081029
  25     -0.002356628957
  26      0.041986594322
  27     -0.035056128164
  28     -0.003480232702
  29      0.143236609867
  30     -0.954833151516
  31      2.035863609993
  32      0.054918168546
  33      0.073774854645
  34      0.063269224423
  35      0.160324941675
  36     -0.477536851972
  37     -0.431327493941
  38     -0.028756336159
  39      0.004188173675
  40      0.007183311389
  41      0.048083998032
  42      0.008106324977
  43      0.142794596185
  44     -0.952249213061
  45      2.029829719311
  46      0.060759185591
  47     -0.067049899358
  48     -0.063479271471
  49      0.116058497740
  50      0.484292692458
  51      0.434679833056
  52     -0.028851090740
  53     -0.003447051362
  54      0.006920137923
  55      0.048413626563
  56     -0.000387772666
 Ene=   0.12188053540241E+01
 Spin= Alpha
 Occup=    0.000000
   1     -0.000000244668
   2      0.000006585553
   3      0.000020988857
   4      0.000004525546
   5     -0.000007346620
   6      0.000089349054
   7     -0.000006967934
   8      0.000287233517
   9     -0.000831367603
  10     -0.000002926887
  11     -0.000050991065
  12     -0.000004371797
  13      0.000011190937
  14     -0.000062020753
  15     -0.000001894916
  16      0.000014269184
  17     -0.000029264742
  18     -0.000001379220
  19      0.000025745485
  20     -0.000576572503
  21      0.000012011009
  22     -0.000011010915
  23      0.000940934292
  24     -0.000000132918
  25      0.000048670722
  26      0.000002198713
  27     -0.000002118371
  28      0.000025773105
  29      0.000015319951
  30     -0.000073997964
  31      0.000186986597
  32      0.000255245885
  33      0.000271658496
  34     -0.000238645325
  35     -0.000304532441
  36     -0.000450014582
  37      0.000450017158
  38      0.000016102342
  39     -0.000006873633
  40      0.000007543765
  41      0.000026345882
  42     -0.000005692084
  43     -0.000016502504
  44      0.000080746402
  45     -0.000203675245
  46     -0.000287728334
  47      0.000263589779
  48     -0.000250451872
  49      0.000355450626
  50     -0.000440229230
  51      0.000461021314
  52     -0.000015746563
  53     -0.000007403509
  54     -0.000008105763
  55     -0.000027028879
  56     -0.000011001901
 Ene=   0.15254119445844E+01
 Spin= Alpha
 Occup=    0.000000
   1     -0.015382053877
   2      0.159839303987
   3      0.369548489327
   4     -0.391987406091
   5     -0.016105312078
   6     -0.002992055487
   7     -2.747415427104
   8     -0.115508978170
   9     -0.022791162801
  10      0.101601562035
  11     -0.010219549934
  12      0.203273061306
  13     -0.218054858080
  14     -0.020205920422
  15      0.158168232135
  16     -1.207289996228
  17      3.286403121194
  18      0.055336413916
  19      0.002190334476
  20      0.000474016827
  21     -1.032507919026
  22     -0.042044609558
  23     -0.008952968909
  24      0.033021515703
  25     -0.001066542381
  26     -0.004535741498
  27     -0.056040641580
  28     -0.004388878250
  29     -0.108886767904
  30      0.835200010536
  31     -2.064357953099
  32     -0.201382055089
  33     -0.113619870830
  34     -0.096355016939
  35      0.327005729252
  36      0.757769460865
  37      0.672247819840
  38     -0.007019672153
  39     -0.019572478994
  40      0.046364793429
  41      0.003970844864
  42     -0.019954307677
  43     -0.108983931908
  44      0.835935092052
  45     -2.067655658201
  46     -0.210804686206
  47      0.097201830694
  48      0.093441791294
  49      0.396766863437
  50     -0.729198957611
  51     -0.666561204436
  52     -0.006800791330
  53      0.016021116944
  54      0.048132603939
  55     -0.000159880605
  56      0.019496852349
 Ene=   0.15441761580702E+01
 Spin= Alpha
 Occup=    0.000000
   1     -0.000000039408
   2      0.000000305321
   3     -0.000000117121
   4     -0.000001728162
   5      0.000045494050
   6      0.000015937500
   7     -0.000018168764
   8      0.000429593584
   9      0.000108710553
  10      0.000010948871
  11     -0.000061467045
  12     -0.000003595086
  13      0.000039572768
  14     -0.000382871751
  15     -0.000000041211
  16      0.000000349784
  17     -0.000000946125
  18     -0.000003930927
  19      0.000085762306
  20      0.000053860121
  21      0.000003387327
  22     -0.000062597397
  23     -0.000047061028
  24      0.000001661776
  25      0.000039893630
  26      0.000002663093
  27     -0.000007542263
  28      0.000093387088
  29      0.000016496849
  30     -0.000037127804
  31     -0.000284038221
  32      0.000072134634
  33      0.000136711538
  34     -0.000194362772
  35     -0.000104226965
  36     -0.000099931476
  37      0.000334378042
  38      0.000069343514
  39      0.000016164881
  40      0.000013990474
  41     -0.000014399345
  42      0.000033398177
  43     -0.000016394300
  44      0.000036270450
  45      0.000285145545
  46     -0.000080934021
  47      0.000137489153
  48     -0.000203398615
  49      0.000108475043
  50     -0.000102541363
  51      0.000349120961
  52     -0.000073416531
  53      0.000016115122
  54     -0.000012844095
  55      0.000005642406
  56      0.000037595940
 Ene=   0.15586451942235E+01
 Spin= Alpha
 Occup=    0.000000
   1     -0.000083721291
   2      0.000022851210
   3      0.001659021617
   4      0.017308779380
   5     -0.354195826300
   6     -0.318964541915
   7      0.127879103392
   8     -2.673822775143
   9     -2.407562267447
  10      0.013218210215
  11      0.226789473580
  12      0.012779858227
  13     -0.016122050158
  14      0.251737101105
  15     -0.000188796678
  16      0.001702925280
  17     -0.002584842131
  18      0.008608494446
  19     -0.178840020588
  20     -0.161038552380
  21     -0.029824683303
  22      0.652238133991
  23      0.587115861857
  24      0.000696848781
  25     -0.031159670901
  26     -0.001073198673
  27      0.003920052663
  28     -0.034331412990
  29      0.169614666457
  30     -1.306080286583
  31      3.737055676791
  32     -0.139774608395
  33     -0.033334442719
  34     -0.026891161613
  35      0.903014272500
  36     -0.553113408233
  37     -0.528286777797
  38     -0.012924449302
  39      0.036276014767
  40     -0.042809486127
  41      0.024149251394
  42      0.037527994991
  43     -0.169762985485
  44      1.307361645951
  45     -3.737953325292
  46      0.142928263432
  47     -0.022395987674
  48     -0.023241233493
  49     -0.848301512737
  50     -0.630395519567
  51     -0.537388117906
  52      0.009153487989
  53      0.029276572958
  54      0.045703239445
  55     -0.033126817475
  56      0.034859414873
 Ene=   0.15679909422649E+01
 Spin= Alpha
 Occup=    0.000000
   1      0.000004990913
   2     -0.000018793704
   3     -0.000062967041
   4     -0.000244115265
   5      0.006296080603
   6      0.005338353610
   7     -0.001802570136
   8      0.046378711449
   9      0.043373620023
  10      0.740099625732
  11     -0.009406629121
  12      0.090308032728
  13      0.426629532866
  14      0.026351622157
  15     -0.000025810629
  16      0.000194378628
  17     -0.000523421302
  18     -0.000198805688
  19      0.003440841532
  20      0.002388677536
  21      0.000696744064
  22     -0.010222314253
  23     -0.012000480843
  24      0.082953506266
  25     -0.002185444067
  26      0.010099430671
  27      0.047623116410
  28      0.005589480848
  29     -0.002936370578
  30      0.022672015042
  31     -0.065278527446
  32      0.001002711606
  33      0.044583731555
  34     -0.048416239012
  35     -0.020006225251
  36      0.132705611770
  37     -0.127879243708
  38     -0.155975873474
  39      0.098466955125
  40     -0.015093905753
  41     -0.084488495671
  42     -0.095122391183
  43      0.002980952417
  44     -0.022989846154
  45      0.065949300418
  46     -0.001007655841
  47     -0.043679233872
  48      0.049399064702
  49      0.018974853010
  50     -0.112228358762
  51      0.146711532918
  52     -0.160439092029
  53     -0.095259704382
  54     -0.023633793678
  55     -0.097471565801
  56      0.078880517128
 Ene=   0.15787454490443E+01
 Spin= Alpha
 Occup=    0.000000
   1     -0.000000181222
   2      0.000004592500
   3      0.000012458694
   4     -0.000016659725
   5      0.000234739592
   6      0.000192960862
   7     -0.000184043256
   8      0.001875523172
   9      0.001744457031
  10      0.000094927710
  11      0.000292462672
  12      0.000030658173
  13      0.000072164243
  14     -0.000558159876
  15      0.000002325245
  16     -0.000023349043
  17      0.000093385304
  18      0.000002265450
  19      0.000164378701
  20      0.000059582037
  21     -0.000018298136
  22     -0.000347134857
  23     -0.000515865260
  24      0.000010314759
  25     -0.000089440441
  26     -0.000002429549
  27     -0.000006417980
  28      0.000145435817
  29     -0.000121401896
  30      0.000935599285
  31     -0.002692114810
  32      0.000172155251
  33      0.000003759132
  34      0.000014854563
  35     -0.000699260787
  36      0.000384625286
  37      0.000410618334
  38      0.000049157573
  39     -0.000020625631
  40      0.000040261132
  41      0.000036792088
  42     -0.000052125324
  43      0.000117815849
  44     -0.000901053227
  45      0.002573758657
  46     -0.000196797463
  47     -0.000011592467
  48      0.000049975583
  49      0.000694091011
  50      0.000369691250
  51      0.000393164615
  52     -0.000088538063
  53     -0.000034321516
  54     -0.000046064159
  55     -0.000045493788
  56     -0.000033970585
 Ene=   0.15802700601947E+01
 Spin= Alpha
 Occup=    0.000000
   1      0.000014448775
   2     -0.000057078354
   3     -0.000046033696
   4      0.000044904588
   5      0.000036574769
   6      0.000030592724
   7      0.000680413788
   8      0.000320659441
   9      0.000267132136
  10     -0.000420540630
  11     -0.000000830625
  12     -0.000087146639
  13     -0.000180887247
  14     -0.000058005117
  15     -0.000036020803
  16      0.000268440814
  17     -0.000763121748
  18     -0.000098198437
  19      0.000024968235
  20      0.000019143524
  21      0.000279289609
  22     -0.000062334995
  23     -0.000068233989
  24     -0.000076978733
  25     -0.000000770956
  26      0.000009687484
  27     -0.000010431414
  28      0.000006125365
  29      0.000006101515
  30     -0.000048061973
  31      0.000069670438
  32      0.000121677436
  33      0.000007078444
  34      0.000048621600
  35     -0.000232664262
  36     -0.000187115178
  37     -0.000021501417
  38      0.000093364079
  39     -0.000063280632
  40      0.000001306540
  41      0.000043664247
  42      0.000051751570
  43      0.000041806875
  44     -0.000324006207
  45      0.000870481394
  46      0.000081528601
  47     -0.000001718043
  48     -0.000050016847
  49     -0.000059572643
  50      0.000303331628
  51      0.000144444047
  52      0.000087850221
  53      0.000055133526
  54     -0.000009045605
  55      0.000053962696
  56     -0.000051073028
 Ene=   0.15814274807307E+01
 Spin= Alpha
 Occup=    0.000000
   1      0.000000971635
   2     -0.000004941720
   3     -0.000007338895
   4     -0.000020204221
   5      0.000009608124
   6      0.000010832819
   7      0.000064436335
   8      0.000117012261
   9      0.000066264308
  10     -0.000816357374
  11     -0.000096687794
  12     -0.000191394169
  13     -0.000212747444
  14      0.000070563585
  15      0.000036251237
  16     -0.000189164350
  17      0.000086609652
  18     -0.000048883178
  19      0.000013101541
  20     -0.000004038590
  21      0.000061358744
  22     -0.000065595003
  23      0.000030832923
  24     -0.000074442512
  25      0.000036147337
  26     -0.000027561770
  27     -0.000070965960
  28     -0.000033080080
  29     -0.000025138407
  30      0.000141034803
  31     -0.000170121274
  32      0.000039095730
  33     -0.000082545819
  34      0.000147191760
  35     -0.000017167396
  36     -0.000052675618
  37      0.000053490663
  38      0.000151511552
  39     -0.000077619755
  40      0.000055854890
  41      0.000037174982