
                                 *****************
                                 * O   R   C   A *
                                 *****************

                                            #,                                       
                                            ###                                      
                                            ####                                     
                                            #####                                    
                                            ######                                   
                                           ########,                                 
                                     ,,################,,,,,                         
                               ,,#################################,,                 
                          ,,##########################################,,             
                       ,#########################################, ''#####,          
                    ,#############################################,,   '####,        
                  ,##################################################,,,,####,       
                ,###########''''           ''''###############################       
              ,#####''   ,,,,##########,,,,          '''####'''          '####       
            ,##' ,,,,###########################,,,                        '##       
           ' ,,###''''                  '''############,,,                           
         ,,##''                                '''############,,,,        ,,,,,,###''
      ,#''                                            '''#######################'''  
     '                                                          ''''####''''         
             ,#######,   #######,   ,#######,      ##                                
            ,#'     '#,  ##    ##  ,#'     '#,    #''#        ,####,   ,####,        
            ##       ##  ##   ,#'  ##            #'  '#       #'       #'  '#        
            ##       ##  #######   ##           ,######,      #####,   #    #        
            '#,     ,#'  ##    ##  '#,     ,#' ,#      #,     #,   #   #,  ,#        
             '#######'   ##     ##  '#######'  #'      '#     '####' # '####'        



                #########################################################
                #                        -***-                          #
                #          Department of theory and spectroscopy        #
                #                                                       #
                #                      Frank Neese                      #
                #                                                       #
                #     Directorship, Architecture, Infrastructure        #
                #                    SHARK, DRIVERS                     #
                #        Core code/Algorithms in most modules           #
                #                                                       #
                #        Max Planck Institute fuer Kohlenforschung      #
                #                Kaiser Wilhelm Platz 1                 #
                #                 D-45470 Muelheim/Ruhr                 #
                #                      Germany                          #
                #                                                       #
                #                  All rights reserved                  #
                #                        -***-                          #
                #########################################################


                         Program Version 6.0.1  -  RELEASE   -


 With contributions from (in alphabetic order):
[Max-Planck-Institut fuer Kohlenforschung]                               
  Daniel Aravena         : Magnetic Suceptibility                        
  Michael Atanasov       : Ab Initio Ligand Field Theory (pilot matlab implementation)
  Alexander A. Auer      : GIAO ZORA, VPT2 properties, NMR spectrum      
  Ute Becker             : All parallelization in ORCA, NUMFREQ, NUMCALC 
  Giovanni Bistoni       : ED, misc. LED, open-shell LED, HFLD           
  Martin Brehm           : Molecular dynamics                            
  Dmytro Bykov           : pre 5.0 version of the SCF Hessian            
  Marcos Casanova-Páez   : Triplet and SCS-CIS(D). UHF-(DLPNO)-IP/EA/STEOM-CCSD. UHF-CVS-IP/STEOM-CCSD   
  Vijay G. Chilkuri      : MRCI spin determinant printing, contributions to CSF-ICE 
  Pauline Colinet        : FMM embedding                                 
  Dipayan Datta          : RHF DLPNO-CCSD density                        
  Achintya Kumar Dutta   : EOM-CC, STEOM-CC                              
  Nicolas Foglia         : Exact transition moments, OPA infrastructure, MCD improvements    
  Dmitry Ganyushin       : Spin-Orbit,Spin-Spin,Magnetic field MRCI      
  Miquel Garcia-Rates    : C-PCM and meta-GGA Hessian, CCSD/C-PCM, Gaussian charge scheme 
  Tiago L. C. Gouveia    : GS-ROHF, GS-ROCIS                             
  Yang Guo               : DLPNO-NEVPT2, F12-NEVPT2, CIM, IAO-localization        
  Andreas Hansen         : Spin unrestricted coupled pair/coupled cluster methods 
  Ingolf Harden          : AUTO-CI MPn and infrastructure                
  Benjamin Helmich-Paris : MC-RPA, TRAH-(SCF,CASSCF), AVAS, COSX integrals, SCF dyn. polar. 
  Lee Huntington         : MR-EOM, pCC                                   
  Robert Izsak           : Overlap fitted RIJCOSX, COSX-SCS-MP3, EOM     
  Riya Kayal             : Wick's Theorem for AUTO-CI, AUTO-CI UHF-CCSDT 
  Emily Kempfer          : AUTO-CI, RHF CISDT and CCSDT                  
  Christian Kollmar      : KDIIS, OOCD, Brueckner-CCSD(T), CCSD density, CASPT2, CASPT2-K, improved NEVPT2 
  Axel Koslowski         : Symmetry handling                             
  Simone Kossmann        : meta-GGA functionals, TD-DFT gradient, OOMP2, (MP2 Hessian; deprecated post 5.0) 
  Lucas Lang             : DCDCAS                                        
  Marvin Lechner         : AUTO-CI (C++ implementation), FIC-MRCC        
  Spencer Leger          : CASSCF response                               
  Dagmar Lenk            : GEPOL surface, SMD, ORCA-2-JSON               
  Dimitrios Liakos       : Extrapolation schemes; Compound Job, initial MDCI parallelization 
  Dimitrios Manganas     : Further ROCIS development; embedding schemes. LFT, Crystal Embedding 
  Dimitrios Pantazis     : SARC Basis sets                               
  Anastasios Papadopoulos: AUTO-CI, single reference methods and gradients 
  Taras Petrenko         : pre 6.0 DFT Hessian and TD-DFT gradient, (ASA, deprecated), ECA, 1-Electron XAS/XES, NRVS 
  Peter Pinski           : DLPNO-MP2, DLPNO-MP2 Gradient                 
  Christoph Reimann      : Effective Core Potentials                     
  Marius Retegan         : Local ZFS, SOC                                
  Christoph Riplinger    : Optimizer, TS searches, QM/MM, DLPNO-CCSD(T), (RO)-DLPNO pert. Triples 
  Michael Roemelt        : Original ROCIS implementation                 
  Masaaki Saitow         : Open-shell DLPNO-CCSD energy and density      
  Barbara Sandhoefer     : DKH picture change effects                    
  Kantharuban Sivalingam : CASSCF convergence/infrastructure, NEVPT2 and variants, FIC-MRCI 
  Bernardo de Souza      : ESD, SOC TD-DFT                               
  Georgi L. Stoychev     : AutoAux, RI-MP2 NMR, DLPNO-MP2 response, X2C  
  Van Anh Tran           : RI-MP2 g-tensors                              
  Willem Van den Heuvel  : Paramagnetic NMR                              
  Zikuan Wang            : NOTCH, Electric field optimization            
  Frank Wennmohs         : Technical directorship and infrastructure     
  Hang Xu                : AUTO-CI-Response properties                   
                                                                         
[FACCTs GmbH]                                                            
  Markus Bursch, Miquel Garcia-Rates, Christoph Riplinger, Bernardo de Souza, Georgi L. Stoychev 
                                                                 
  APM, Basis sets (HGBS, AHGBS, def-TZVP (Ac-Lr), def2-XVPD (La-Lu)), CI-OPT, improved COSX, DLPNO-Multilevel,           
  DOCKER, DRACO, updates on ESD, GOAT, IRC, LR-CPCM, MBIS, meta-GGA TD-DFT gradient, ML-optimized integration grids, 
  MM, NACMEs, nearIR, NEB, NEB-TS, NL-DFT gradient (VV10), 2- and 3-layer-ONIOM, interface openCOSMO-RS, QMMM,   
  Crystal-QMMM, SF, symmetry and pop. for TD-DFT, r2SCAN hybrids, SOLVATOR                                   
                                                                         
[Other institutions]                                                     
  V. Asgeirsson          : NEB                                           
  Christoph Bannwarth    : sTDA-DFT, sTD-DFT, PBEh-3c, B97-3c, D3        
  Sebastian Ehlert       : rSCAN, r2SCAN, r2SCAN-3c, D4, dhf basis sets  
  Marvin Friede          : D4 for Fr, Ra, Ac-Lr                          
  Lars Goerigk           : TD-DFT with DH, B97 family of functionals     
  Stefan Grimme          : VdW corrections, initial TS optimization, DFT functionals, gCP, sTDA/sTD-DF 
  Waldemar Hujo          : DFT-NL                                        
  H. Jonsson             : NEB                                           
  Holger Kruse           : gCP                                           
  Marcel Mueller         : wB97X-3c, vDZP basis set                      
  Hagen Neugebauer       : wr2SCAN                                       
  Tobias Risthaus        : range-separated hybrid DFT                    
  Lukas Wittmann         : regularized MP2, r2SCAN double-hybrids, wr2SCAN        
                                                                         
We gratefully acknowledge several colleagues who have allowed us to      
interface, adapt or use parts of their codes:                            
  Ed Valeev, F. Pavosevic, A. Kumar             : LibInt (2-el integral package), F12 methods 
  Garnet Chan, S. Sharma, J. Yang, R. Olivares  : DMRG                   
  Ulf Ekstrom                                   : XCFun DFT Library      
  Mihaly Kallay                                 : mrcc  (arbitrary order and MRCC methods)
  Frank Weinhold                                : gennbo (NPA and NBO analysis)           
  Simon Mueller                                 : openCOSMO-RS                            
  Christopher J. Cramer and Donald G. Truhlar   : smd solvation model                     
  S Lehtola, MJT Oliveira, MAL Marques          : LibXC Library                           
  Liviu Ungur et al                             : ANISO software                          


 Your calculation uses the libint2 library for the computation of 2-el integrals
 For citations please refer to: http://libint.valeyev.net

 Your ORCA version has been built with support for libXC version: 6.2.2
 For citations please refer to: https://libxc.gitlab.io

 This ORCA versions uses:
   CBLAS   interface :  Fast vector & matrix operations
   LAPACKE interface :  Fast linear algebra routines
   SCALAPACK package :  Parallel linear algebra routines
   Shared memory     :  Shared parallel matrices
   BLAS/LAPACK       :  OpenBLAS 0.3.27  USE64BITINT DYNAMIC_ARCH NO_AFFINITY Zen SINGLE_THREADED
        Core in use  :  Zen
   Copyright (c) 2011-2014, The OpenBLAS Project


NOTE: MaxCore=4000 MB was set to SCF,MP2,MDCI,CIPSI,MRCI and CIS
      => If you want to overwrite this, your respective input block should be placed after the MaxCore statement


***************************************
The coordinates will be read from file: /home/lky/Code_TRESC/TRESC/tests/Ni0-C2H4-3/Ni0-C2H4.xyz
***************************************


Your calculation utilizes the atom-pairwise dispersion correction
with the Becke-Johnson damping scheme (D3BJ)


================================================================================

----- Orbital basis set information -----
Your calculation utilizes the basis: def2-SVP
   F. Weigend and R. Ahlrichs, Phys. Chem. Chem. Phys. 7, 3297 (2005).

================================================================================
                                        WARNINGS
                       Please study these warnings very carefully!
================================================================================

WARNING: Old DensityContainer found on disk!
         Will remove this file - 
         If you want to keep old densities, please start your calculation with a different basename. 


WARNING: Gradients are needed
  ===> : At least TightSCF should be used for SCF convergence

================================================================================
                                       INPUT FILE
================================================================================
NAME = /scratch/orcascr/Ni0-C2H4/Ni0-C2H4.inp
|  1> !uks nousesym opt pbe0 d3 def2-svp nori strongscf noautostart miniprint nopop
|  2> %maxcore 4000
|  3> %pal nprocs 32 end
|  4> * xyzfile 0 3 /home/lky/Code_TRESC/TRESC/tests/Ni0-C2H4-3/Ni0-C2H4.xyz
|  5> 
|  6>                          ****END OF INPUT****
================================================================================

                       *****************************
                       * Geometry Optimization Run *
                       *****************************

Geometry optimization settings:
Update method            Update   .... BFGS
Choice of coordinates    CoordSys .... (2022) Redundant Internals
Initial Hessian          InHess   .... Almloef's Model
Max. no of cycles        MaxIter  .... 50

Convergence Tolerances:
Energy Change            TolE     ....  5.0000e-06 Eh
Max. Gradient            TolMAXG  ....  3.0000e-04 Eh/bohr
RMS Gradient             TolRMSG  ....  1.0000e-04 Eh/bohr
Max. Displacement        TolMAXD  ....  4.0000e-03 bohr
RMS Displacement         TolRMSD  ....  2.0000e-03 bohr
Strict Convergence                .... False

------------------------------------------------------------------------------
                        ORCA OPTIMIZATION COORDINATE SETUP
------------------------------------------------------------------------------

The optimization will be done in redundant internal coordinates (2022)
Making redundant internal coordinates   ...  (2022 redundants) done
Evaluating the initial hessian          ...  (Almloef) done
Evaluating the coordinates              ...  done
Calculating the B-matrix                .... done
Calculating the G-matrix                .... done
Diagonalizing the G-matrix              .... done
The first mode is                       ....   15
The number of degrees of freedom        ....   15

    -----------------------------------------------------------------
                    Redundant Internal Coordinates


    -----------------------------------------------------------------
         Definition                    Initial Value    Approx d2E/dq
    -----------------------------------------------------------------
      1. B(C   1,Ni  0)                  1.8491         1.170425   
      2. B(C   2,C   1)                  1.4415         0.517085   
      3. B(C   2,Ni  0)                  1.8457         1.185376   
      4. B(H   3,C   1)                  1.1010         0.345784   
      5. B(H   4,C   1)                  1.1010         0.345792   
      6. B(H   5,C   2)                  1.1011         0.345674   
      7. B(H   6,C   2)                  1.1011         0.345671   
      8. A(C   1,Ni  0,C   2)           45.9267         0.704425   
      9. A(Ni  0,C   1,H   3)          115.5607         0.437722   
     10. A(H   3,C   1,H   4)          112.4539         0.287168   
     11. A(Ni  0,C   1,H   4)          115.5197         0.437724   
     12. A(C   2,C   1,H   3)          119.4812         0.339971   
     13. A(C   2,C   1,H   4)          119.4488         0.339973   
     14. A(Ni  0,C   1,C   2)           66.9102         0.530644   
     15. A(C   1,C   2,H   6)          119.4290         0.339953   
     16. A(Ni  0,C   2,C   1)           67.1631         0.531915   
     17. A(Ni  0,C   2,H   6)          115.3376         0.438699   
     18. A(C   1,C   2,H   5)          119.4987         0.339953   
     19. A(H   5,C   2,H   6)          112.3664         0.287138   
     20. A(Ni  0,C   2,H   5)          115.7075         0.438700   
     21. D(H   4,C   1,Ni  0,C   2)   -112.8745         0.006691   
     22. D(H   3,C   1,Ni  0,C   2)    112.9007         0.006691   
     23. D(H   5,C   2,Ni  0,C   1)    112.9693         0.006828   
     24. D(Ni  0,C   2,C   1,H   3)   -107.3249         0.021212   
     25. D(Ni  0,C   2,C   1,H   4)    107.2852         0.021212   
     26. D(H   5,C   2,C   1,Ni  0)   -107.6095         0.021212   
     27. D(H   5,C   2,C   1,H   4)     -0.3243         0.021212   
     28. D(H   5,C   2,C   1,H   3)    145.0657         0.021212   
     29. D(H   6,C   2,C   1,Ni  0)    107.1920         0.021212   
     30. D(H   6,C   2,Ni  0,C   1)   -112.9844         0.006828   
    -----------------------------------------------------------------

Number of atoms                         .... 7
Number of degrees of freedom            .... 30


         *************************************************************
         *                GEOMETRY OPTIMIZATION CYCLE   1            *
         *************************************************************
---------------------------------
CARTESIAN COORDINATES (ANGSTROEM)
---------------------------------
  Ni     1.075671    3.527026   -0.245425
  C      2.374237    2.599125    0.688398
  C      2.580858    2.579275   -0.738086
  H      3.032752    3.212448    1.322818
  H      2.030425    1.685863    1.198327
  H      2.397618    1.649972   -1.299606
  H      3.393639    3.179768   -1.175448

----------------------------
CARTESIAN COORDINATES (A.U.)
----------------------------
  NO LB      ZA    FRAG     MASS         X           Y           Z
   0 Ni   28.0000    0    58.700    2.032725    6.665113   -0.463785
   1 C     6.0000    0    12.011    4.486659    4.911635    1.300884
   2 C     6.0000    0    12.011    4.877114    4.874124   -1.394781
   3 H     1.0000    0     1.008    5.731071    6.070647    2.499764
   4 H     1.0000    0     1.008    3.836947    3.185820    2.264510
   5 H     1.0000    0     1.008    4.530842    3.117995   -2.455899
   6 H     1.0000    0     1.008    6.413048    6.008891   -2.221275



           ************************************************************
           *        Program running with 32 parallel MPI-processes    *
           *              working on a common directory               *
           ************************************************************
------------------------------------------------------------------------------
                   ___                                                        
                  /   \      - P O W E R E D   B Y -                         
                 /     \                                                     
                 |  |  |   _    _      __       _____    __    __             
                 |  |  |  | |  | |    /  \     |  _  \  |  |  /  |          
                  \  \/   | |  | |   /    \    | | | |  |  | /  /          
                 / \  \   | |__| |  /  /\  \   | |_| |  |  |/  /          
                |  |  |   |  __  | /  /__\  \  |    /   |      \           
                |  |  |   | |  | | |   __   |  |    \   |  |\   \          
                \     /   | |  | | |  |  |  |  | |\  \  |  | \   \       
                 \___/    |_|  |_| |__|  |__|  |_| \__\ |__|  \__/        
                                                                              
                      - O R C A' S   B I G   F R I E N D -                    
                                      &                                       
                       - I N T E G R A L  F E E D E R -                       
                                                                              
 v1 FN, 2020, v2 2021, v3 2022-2024                                           
------------------------------------------------------------------------------


----------------------
SHARK INTEGRAL PACKAGE
----------------------

Number of atoms                             ...      7
Number of basis functions                   ...     79
Number of shells                            ...     35
Maximum angular momentum                    ...      3
Integral batch strategy                     ... SHARK/LIBINT Hybrid
RI-J (if used) integral strategy            ... SPLIT-RIJ (Revised 2003 algorithm where possible)
Printlevel                                  ...      1
Contraction scheme used                     ... SEGMENTED contraction
Prescreening option                         ... SCHWARTZ
   Thresh                                   ... 1.000e-10
   Tcut                                     ... 3.000e-11
   Tpresel                                  ... 3.000e-11 
Coulomb Range Separation                    ... NOT USED
Exchange Range Separation                   ... NOT USED
Multipole approximations                    ... NOT USED
Finite Nucleus Model                        ... NOT USED
CABS basis                                  ... NOT available
Auxiliary Coulomb fitting basis             ... NOT available
Auxiliary J/K fitting basis                 ... NOT available
Auxiliary Correlation fitting basis         ... NOT available
Auxiliary 'external' fitting basis          ... NOT available

Checking pre-screening integrals            ... done (  0.0 sec) Dimension = 35
Check shell pair data                       ... done (  0.0 sec)
Shell pair information
Shell pair cut-off parameter TPreSel        ...   3.0e-11
Total number of shell pairs                 ...       630
Shell pairs after pre-screening             ...       624
Total number of primitive shell pairs       ...      2779
Primitive shell pairs kept                  ...      2276
          la=0 lb=0:    186 shell pairs
          la=1 lb=0:    207 shell pairs
          la=1 lb=1:     66 shell pairs
          la=2 lb=0:     76 shell pairs
          la=2 lb=1:     44 shell pairs
          la=2 lb=2:     10 shell pairs
          la=3 lb=0:     19 shell pairs
          la=3 lb=1:     11 shell pairs
          la=3 lb=2:      4 shell pairs
          la=3 lb=3:      1 shell pairs

Calculating one electron integrals          ... done (  0.0 sec)
Calculating Nuclear repulsion               ... done (  0.0 sec) ENN=    151.564333755335 Eh

Diagonalization of the overlap matrix:
Smallest eigenvalue                        ... 3.278e-03
Time for diagonalization                   ...    0.001 sec
Threshold for overlap eigenvalues          ... 1.000e-07
Number of eigenvalues below threshold      ... 0
Time for construction of square roots      ...    0.000 sec
Total time needed                          ...    0.002 sec

-------------------
DFT GRID GENERATION
-------------------

General Integration Accuracy     IntAcc      ... 4.388
Radial Grid Type                 RadialGrid  ... OptM3 with GC (2021)
Angular Grid (max. ang.)         AngularGrid ... 4 (Lebedev-302)
Angular grid pruning method      GridPruning ... 4 (adaptive)
Weight generation scheme         WeightScheme... mBecke (2022)
Basis function cutoff            BFCut       ... 3.0000e-11
Integration weight cutoff        WCut        ... 1.0000e-14
Partially contracted basis set               ... off
Rotationally invariant grid construction     ... off
Angular grids for H and He will be reduced by one unit
Core-polarized basis detected: some atoms will have their core
                               angular grid increased.

Total number of grid points                  ...    36375
Total number of batches                      ...      572
Average number of points per batch           ...       63
Average number of grid points per atom       ...     5196
Initializing property integral containers    ... done (  0.0 sec)

SHARK setup successfully completed in   0.3 seconds

Maximum memory used throughout the entire STARTUP-calculation: 12.4 MB


           ************************************************************
           *        Program running with 32 parallel MPI-processes    *
           *              working on a common directory               *
           ************************************************************
Loading Hartree-Fock densities                     ... done
Calculating cut-offs                               ... done
Initializing the effective Hamiltonian             ... done
Setting up the integral package (SHARK)            ... done
Starting the Coulomb interaction                   ... done (   0.0 sec)
Making the grid                                    ... done (   0.1 sec)
Mapping shells                                     ... done
Starting the XC term evaluation                    ... done (   0.0 sec)
  promolecular density results
     # of electrons  =     43.998523994
     EX              =    -72.969100295
     EC              =     -1.795490156
     EX+EC           =    -74.764590452
Transforming the Hamiltonian                       ... done (   0.0 sec)
Diagonalizing the Hamiltonian                      ... done (   0.0 sec)
Back transforming the eigenvectors                 ... done (   0.0 sec)
Now organizing SCF variables                       ... done
             **** ENERGY FILE WAS UPDATED (/scratch/orcascr/Ni0-C2H4/Ni0-C2H4.en.tmp) ****
Finished Guess after   0.2 sec
Maximum memory used throughout the entire GUESS-calculation: 6.5 MB


           ************************************************************
           *        Program running with 32 parallel MPI-processes    *
           *              working on a common directory               *
           ************************************************************
----------------------------------------D-I-I-S--------------------------------------------
Iteration    Energy (Eh)           Delta-E    RMSDP     MaxDP     DIISErr   Damp  Time(sec)
-------------------------------------------------------------------------------------------
               ***  Starting incremental Fock matrix formation  ***
    1    -1586.0246479675524824     0.00e+00  3.04e-03  4.76e-02  1.11e-01  0.700   0.1
Warning: op=0 Small HOMO/LUMO gap (  -0.015) - skipping pre-diagonalization
         Will do a full diagonalization
    2    -1586.1161907555838297    -9.15e-02  2.47e-03  4.86e-02  5.39e-02  0.700   0.1
                               ***Turning on AO-DIIS***
    3    -1586.1500981162826065    -3.39e-02  1.07e-03  2.11e-02  1.77e-02  0.700   0.1
    4    -1586.1691752059186911    -1.91e-02  1.63e-03  2.66e-02  1.27e-02  0.000   0.1
    5    -1586.2137802096549422    -4.46e-02  4.94e-04  7.43e-03  4.99e-03  0.000   0.1
                              *** Initializing SOSCF ***
---------------------------------------S-O-S-C-F--------------------------------------
Iteration    Energy (Eh)           Delta-E    RMSDP     MaxDP     MaxGrad    Time(sec)
--------------------------------------------------------------------------------------
    6    -1586.2146591328189515    -8.79e-04  2.08e-04  3.65e-03  2.29e-03     0.1
               *** Restarting incremental Fock matrix formation ***
    7    -1586.2148459370341698    -1.87e-04  2.54e-04  5.12e-03  2.41e-03     0.1
    8    -1586.2149352532387638    -8.93e-05  3.59e-04  1.24e-02  2.49e-03     0.1
    9    -1586.2150591775230168    -1.24e-04  4.45e-04  1.74e-02  2.03e-03     0.1
               *** Scaled step length from 0.269708 to 0.200000 ***
   10    -1586.2152167139049652    -1.58e-04  2.25e-03  8.81e-02  2.43e-03     0.1
               *** Scaled step length from 31.951798 to 0.200000 ***
Curvature condition for BFGS not met. Restarting diagonal Hessian.
   11    -1586.2161960152543543    -9.79e-04  2.49e-03  8.24e-02  5.68e-03     0.1
   12    -1586.2133434682452844     2.85e-03  9.61e-04  1.91e-02  3.14e-02     0.1
   13    -1586.2151210410404474    -1.78e-03  9.14e-04  1.86e-02  5.28e-03     0.1
   14    -1586.2156762684073783    -5.55e-04  5.25e-04  1.21e-02  1.36e-02     0.1
               *** Scaled step length from 0.260452 to 0.200000 ***
   15    -1586.2161359644571803    -4.60e-04  2.41e-03  5.50e-02  5.71e-03     0.1
               *** Scaled step length from 43.377677 to 0.200000 ***
   16    -1586.2182544905213035    -2.12e-03  2.48e-03  6.98e-02  2.27e-02     0.1
               *** Scaled step length from 1.141166 to 0.200000 ***
   17    -1586.2202038215850735    -1.95e-03  2.56e-03  8.88e-02  4.98e-02     0.1
               *** Scaled step length from 0.274284 to 0.200000 ***
   18    -1586.2218017475865963    -1.60e-03  2.58e-03  9.06e-02  7.67e-02     0.1
   19    -1586.2232922587013491    -1.49e-03  1.70e-03  4.40e-02  9.96e-02     0.1
               *** Scaled step length from 0.257413 to 0.200000 ***
   20    -1586.2254686464868882    -2.18e-03  2.54e-03  5.33e-02  1.02e-01     0.1
               *** Scaled step length from 0.202581 to 0.200000 ***
   21    -1586.2293954045703686    -3.93e-03  2.53e-03  3.83e-02  8.93e-02     0.1
   22    -1586.2342453736494008    -4.85e-03  1.46e-03  2.66e-02  5.02e-02     0.1
   23    -1586.2377123636435954    -3.47e-03  1.76e-03  2.90e-02  1.56e-02     0.1
   24    -1586.2401062035644372    -2.39e-03  1.97e-03  3.91e-02  8.06e-03     0.1
   25    -1586.2405919318423457    -4.86e-04  8.41e-04  1.64e-02  1.51e-02     0.1
   26    -1586.2414008361670312    -8.09e-04  3.42e-04  6.33e-03  2.82e-03     0.1
               *** Restarting incremental Fock matrix formation ***
   27    -1586.2415582261610325    -1.57e-04  4.65e-04  1.43e-02  1.67e-03     0.1
   28    -1586.2416568786952666    -9.87e-05  3.07e-04  1.04e-02  1.30e-03     0.1
   29    -1586.2417030613503357    -4.62e-05  2.17e-04  8.01e-03  7.37e-04     0.1
   30    -1586.2417315990933275    -2.85e-05  2.23e-04  6.29e-03  1.23e-03     0.1
   31    -1586.2417520902490651    -2.05e-05  1.60e-04  3.05e-03  1.38e-03     0.1
   32    -1586.2417613178879492    -9.23e-06  9.56e-05  1.50e-03  6.43e-04     0.1
   33    -1586.2417644947549888    -3.18e-06  3.38e-05  7.46e-04  1.27e-04     0.1
   34    -1586.2417651965256482    -7.02e-07  1.19e-05  2.58e-04  8.94e-05     0.1
   35    -1586.2417653798320316    -1.83e-07  1.17e-05  2.27e-04  5.64e-05     0.1
                 **** Energy Check signals convergence ****

               *****************************************************
               *                     SUCCESS                       *
               *           SCF CONVERGED AFTER  35 CYCLES          *
               *****************************************************

             **** ENERGY FILE WAS UPDATED (/scratch/orcascr/Ni0-C2H4/Ni0-C2H4.en.tmp) ****

----------------
TOTAL SCF ENERGY
----------------

Total Energy       :      -1586.24176537983203 Eh          -43163.83284 eV

Components:
Nuclear Repulsion  :        151.56433375533518 Eh            4124.27520 eV
Electronic Energy  :      -1737.80609913516719 Eh          -47288.10804 eV
One Electron Energy:      -2501.19849800793872 Eh          -68061.07129 eV
Two Electron Energy:        763.39239887277165 Eh           20772.96325 eV

Virial components:
Potential Energy   :      -3169.70239346504513 Eh          -86251.98709 eV
Kinetic Energy     :       1583.46062808521333 Eh           43088.15425 eV
Virial Ratio       :          2.00175636655897

DFT components:
N(Alpha)           :       23.000033028104 electrons
N(Beta)            :       21.000005299321 electrons
N(Total)           :       44.000038327425 electrons
E(X)               :      -55.008170612396 Eh       
E(C)               :       -1.803198411822 Eh       
E(XC)              :      -56.811369024217 Eh       

---------------
SCF CONVERGENCE
---------------

  Last Energy change         ...    1.8331e-07  Tolerance :   3.0000e-07
  Last MAX-Density change    ...    2.2719e-04  Tolerance :   3.0000e-06
  Last RMS-Density change    ...    1.1682e-05  Tolerance :   1.0000e-07
  Last DIIS Error            ...    2.2921e-03  Tolerance :   3.0000e-06
  Last Orbital Gradient      ...    5.6405e-05  Tolerance :   2.0000e-05
  Last Orbital Rotation      ...    4.5629e-04  Tolerance :   2.0000e-05


----------------------
UHF SPIN CONTAMINATION
----------------------

Warning: in a DFT calculation there is little theoretical justification to 
         calculate <S**2> as in Hartree-Fock theory. We will do it anyways
         but you should keep in mind that the values have only limited relevance

Expectation value of <S**2>     :     2.041558
Ideal value S*(S+1) for S=1.0   :     2.000000
Deviation                       :     0.041558

----------------
ORBITAL ENERGIES
----------------
                 SPIN UP ORBITALS
  NO   OCC          E(Eh)            E(eV) 
   0   1.0000    -300.165570     -8167.9204 
   1   1.0000     -35.931931      -977.7576 
   2   1.0000     -31.339189      -852.7827 
   3   1.0000     -31.325871      -852.4203 
   4   1.0000     -31.318258      -852.2131 
   5   1.0000     -10.254259      -279.0326 
   6   1.0000     -10.253698      -279.0173 
   7   1.0000      -4.120613      -112.1276 
   8   1.0000      -2.721800       -74.0640 
   9   1.0000      -2.693922       -73.3053 
  10   1.0000      -2.673625       -72.7530 
  11   1.0000      -0.799710       -21.7612 
  12   1.0000      -0.616864       -16.7857 
  13   1.0000      -0.496668       -13.5150 
  14   1.0000      -0.478211       -13.0128 
  15   1.0000      -0.389569       -10.6007 
  16   1.0000      -0.389161       -10.5896 
  17   1.0000      -0.344331        -9.3697 
  18   1.0000      -0.335345        -9.1252 
  19   1.0000      -0.330676        -8.9982 
  20   1.0000      -0.327390        -8.9087 
  21   1.0000      -0.308589        -8.3971 
  22   1.0000      -0.138179        -3.7600 
  23   0.0000      -0.063254        -1.7212 
  24   0.0000       0.057799         1.5728 
  25   0.0000       0.068914         1.8752 
  26   0.0000       0.101877         2.7722 
  27   0.0000       0.110624         3.0102 
  28   0.0000       0.132672         3.6102 
  29   0.0000       0.184582         5.0227 
  30   0.0000       0.192715         5.2441 
  31   0.0000       0.273318         7.4374 
  32   0.0000       0.303642         8.2625 
  33   0.0000       0.417944        11.3728 

                 SPIN DOWN ORBITALS
  NO   OCC          E(Eh)            E(eV) 
   0   1.0000    -300.164232     -8167.8840 
   1   1.0000     -35.903699      -976.9893 
   2   1.0000     -31.305144      -851.8563 
   3   1.0000     -31.304831      -851.8478 
   4   1.0000     -31.303092      -851.8004 
   5   1.0000     -10.254539      -279.0402 
   6   1.0000     -10.253892      -279.0226 
   7   1.0000      -4.055369      -110.3522 
   8   1.0000      -2.633220       -71.6536 
   9   1.0000      -2.626372       -71.4672 
  10   1.0000      -2.620471       -71.3066 
  11   1.0000      -0.799211       -21.7476 
  12   1.0000      -0.618178       -16.8215 
  13   1.0000      -0.495707       -13.4889 
  14   1.0000      -0.470878       -12.8133 
  15   1.0000      -0.387977       -10.5574 
  16   1.0000      -0.340386        -9.2624 
  17   1.0000      -0.309509        -8.4222 
  18   1.0000      -0.301574        -8.2062 
  19   1.0000      -0.293633        -7.9902 
  20   1.0000      -0.276203        -7.5159 
  21   0.0000      -0.071943        -1.9577 
  22   0.0000      -0.039470        -1.0740 
  23   0.0000      -0.014522        -0.3952 
  24   0.0000       0.081022         2.2047 
  25   0.0000       0.090823         2.4714 
  26   0.0000       0.112874         3.0715 
  27   0.0000       0.113681         3.0934 
  28   0.0000       0.166996         4.5442 
  29   0.0000       0.184522         5.0211 
  30   0.0000       0.220250         5.9933 
  31   0.0000       0.275572         7.4987 
*Only the first 10 virtual orbitals were printed.
Total SCF time: 0 days 0 hours 0 min 2 sec 
Finished LeanSCF after   2.7 sec

Maximum memory used throughout the entire LEANSCF-calculation: 12.2 MB


-------------------------------------------------------------------------------
                          DFT DISPERSION CORRECTION                            
                                                                               
                              DFTD3 V3.1  Rev 1                                
                          USING Becke-Johnson damping                          
-------------------------------------------------------------------------------
-------------------------   ----------------
Dispersion correction           -0.003666391
-------------------------   ----------------


-------------------------   --------------------
FINAL SINGLE POINT ENERGY     -1586.245431770994
-------------------------   --------------------



           ************************************************************
           *        Program running with 32 parallel MPI-processes    *
           *              working on a common directory               *
           ************************************************************
------------------------------------------------------------------------------
                         ORCA SCF GRADIENT CALCULATION
------------------------------------------------------------------------------

Nuc. rep. gradient        (SHARK) ... done (  0.0 sec)
HCore & Overlap gradient  (SHARK) ... done (  0.0 sec)
Two-electron gradient     (SHARK) ... done (  0.3 sec)
XC gradient                       ... done (  0.1 sec)
Dispersion correction             ... done (  0.0 sec)

-------------------
DISPERSION GRADIENT
-------------------

   1   Ni  :   -0.000059823    0.000040067   -0.000009488
   2   C   :   -0.000001492   -0.000000591    0.000019265
   3   C   :    0.000004090   -0.000001145   -0.000018867
   4   H   :    0.000020079    0.000008926    0.000045370
   5   H   :   -0.000003493   -0.000026966    0.000042433
   6   H   :    0.000008690   -0.000028130   -0.000040856
   7   H   :    0.000031950    0.000007840   -0.000037858

Difference to translation invariance:
           :    0.0000000000    0.0000000000    0.0000000000

Difference to rotation invariance:
           :    0.0000000000   -0.0000000000   -0.0000000000

Norm of the Dispersion gradient    ...    0.0001271009
RMS gradient                       ...    0.0000277357
MAX gradient                       ...    0.0000598231

------------------
CARTESIAN GRADIENT
------------------

   1   Ni  :    0.056004479   -0.037409089    0.008681095
   2   C   :   -0.041004481    0.025642662    0.014254233
   3   C   :   -0.035581307    0.025472457   -0.026098712
   4   H   :    0.004893448   -0.003667067    0.001378841
   5   H   :    0.005142946   -0.003144014    0.001450959
   6   H   :    0.005523043   -0.003240615    0.000204834
   7   H   :    0.005021873   -0.003654332    0.000128751

Difference to translation invariance:
           :   -0.0000000001    0.0000000008   -0.0000000000

Difference to rotation invariance:
           :    0.0001001167   -0.0000652739    0.0001047463

Norm of the Cartesian gradient     ...    0.0995328584
RMS gradient                       ...    0.0217198504
MAX gradient                       ...    0.0560044787

-------
TIMINGS
-------

Total SCF gradient time     ....        0.460 sec

Densities                   ....       0.000 sec  (  0.1%)
One electron gradient       ....       0.021 sec  (  4.5%)
Two electron gradient       ....       0.333 sec  ( 72.5%)
XC gradient                 ....       0.068 sec  ( 14.7%)

Maximum memory used throughout the entire SCFGRAD-calculation: 26.6 MB
------------------------------------------------------------------------------
                         ORCA GEOMETRY RELAXATION STEP
------------------------------------------------------------------------------

Reading the OPT-File                    .... done
Getting information on internals        .... done
Copying old internal coords+grads       .... done
Making the new internal coordinates     .... (2022 redundants) done
Validating the new internal coordinates .... (2022 redundants) done
Calculating the B-matrix                .... done
Calculating the G,G- and P matrices     .... done
Transforming gradient to internals      .... done
Projecting the internal gradient        .... done
Number of atoms                         ....   7
Number of internal coordinates          ....  30
Current Energy                          .... -1586.245431771 Eh
Current gradient norm                   ....     0.099532858 Eh/bohr
Maximum allowed component of the step   ....  0.300
Current trust radius                    ....  0.300
Evaluating the initial hessian          ....  (Almloef) done
Projecting the Hessian                  .... done
Forming the augmented Hessian           .... done
Diagonalizing the augmented Hessian     .... done
Last element of RFO vector              ....  0.992692080
Lowest eigenvalues of augmented Hessian:
 -0.005069174  0.076512665  0.108235187  0.132588061  0.136905283
Length of the computed step             ....  0.121563287
The final length of the internal step   ....  0.121563287
Converting the step to Cartesian space:
 Initial RMS(Int)=    0.0221943181
Transforming coordinates:
 Iter   0:  RMS(Cart)=    0.0151304139 RMS(Int)=    0.0222031283
done
Storing new coordinates                 .... done

                                .--------------------.
          ----------------------|Geometry convergence|-------------------------
          Item                value                   Tolerance       Converged
          ---------------------------------------------------------------------
          RMS gradient        0.0107966112            0.0001000000      NO
          MAX gradient        0.0332342062            0.0003000000      NO
          RMS step            0.0221943181            0.0020000000      NO
          MAX step            0.0508064054            0.0040000000      NO
          ........................................................
          Max(Bonds)      0.0269      Max(Angles)    1.42
          Max(Dihed)        2.76      Max(Improp)    0.00
          ---------------------------------------------------------------------

The optimization has not yet converged - more geometry cycles are needed


    ---------------------------------------------------------------------------
                         Redundant Internal Coordinates
                            (Angstroem and degrees)

        Definition                    Value    dE/dq     Step     New-Value
    ----------------------------------------------------------------------------
     1. B(C   1,Ni  0)                1.8491 -0.032806  0.0148    1.8640   
     2. B(C   2,C   1)                1.4415  0.026132 -0.0269    1.4146   
     3. B(C   2,Ni  0)                1.8457 -0.033234  0.0148    1.8605   
     4. B(H   3,C   1)                1.1010  0.001682 -0.0025    1.0985   
     5. B(H   4,C   1)                1.1010  0.001670 -0.0025    1.0985   
     6. B(H   5,C   2)                1.1011  0.001716 -0.0026    1.0985   
     7. B(H   6,C   2)                1.1011  0.001659 -0.0025    1.0986   
     8. A(C   1,Ni  0,C   2)           45.93  0.016145   -1.30     44.63   
     9. A(Ni  0,C   1,H   3)          115.56  0.004515   -1.27    114.29   
    10. A(H   3,C   1,H   4)          112.45 -0.002567    0.29    112.75   
    11. A(Ni  0,C   1,H   4)          115.52  0.005777   -1.42    114.10   
    12. A(C   2,C   1,H   3)          119.48  0.000240    0.62    120.10   
    13. A(C   2,C   1,H   4)          119.45  0.000332    0.64    120.09   
    14. A(Ni  0,C   1,C   2)           66.91 -0.008189    0.65     67.56   
    15. A(C   1,C   2,H   6)          119.43  0.000170    0.65    120.08   
    16. A(Ni  0,C   2,C   1)           67.16 -0.007956    0.65     67.81   
    17. A(Ni  0,C   2,H   6)          115.34  0.006092   -1.42    113.91   
    18. A(C   1,C   2,H   5)          119.50  0.000129    0.63    120.13   
    19. A(H   5,C   2,H   6)          112.37 -0.002859    0.30    112.67   
    20. A(Ni  0,C   2,H   5)          115.71  0.004914   -1.30    114.41   
    21. D(H   4,C   1,Ni  0,C   2)   -112.87  0.003902   -1.32   -114.19   
    22. D(H   3,C   1,Ni  0,C   2)    112.90 -0.003680    1.26    114.16   
    23. D(H   5,C   2,Ni  0,C   1)    112.97 -0.003838    1.27    114.24   
    24. D(Ni  0,C   2,C   1,H   3)   -107.32 -0.001502    1.37   -105.96   
    25. D(Ni  0,C   2,C   1,H   4)    107.29  0.002971   -1.55    105.74   
    26. D(H   5,C   2,C   1,Ni  0)   -107.61 -0.002098    1.40   -106.21   
    27. D(H   5,C   2,C   1,H   4)     -0.32  0.000873   -0.15     -0.48   
    28. D(H   5,C   2,C   1,H   3)    145.07 -0.003600    2.76    147.83   
    29. D(H   6,C   2,C   1,Ni  0)    107.19  0.003473   -1.55    105.64   
    30. D(H   6,C   2,Ni  0,C   1)   -112.98  0.004041   -1.32   -114.30   
    ----------------------------------------------------------------------------

Geometry step timings:
Preparation and reading OPT file:      0.000 s ( 9.336 %)
Internal coordinates            :      0.000 s ( 1.605 %)
B/P matrices and projection     :      0.000 s (12.473 %)
Hessian update/contruction      :      0.000 s ( 8.899 %)
Making the step                 :      0.000 s ( 9.117 %)
Converting the step to Cartesian:      0.000 s ( 2.626 %)
Storing new data                :      0.000 s ( 1.823 %)
Checking convergence            :      0.000 s ( 0.073 %)
Final printing                  :      0.001 s (53.829 %)
Total time                      :      0.001 s

Time for energy+gradient        :      4.678 s
Time for complete geometry iter :      4.936 s

         *************************************************************
         *                GEOMETRY OPTIMIZATION CYCLE   2            *
         *************************************************************
---------------------------------
CARTESIAN COORDINATES (ANGSTROEM)
---------------------------------
  Ni     1.072497    3.529073   -0.246085
  C      2.390933    2.589172    0.677380
  C      2.593722    2.569548   -0.722409
  H      3.027518    3.215100    1.317449
  H      2.023620    1.691508    1.193152
  H      2.391967    1.654529   -1.295845
  H      3.384943    3.184549   -1.172665

----------------------------
CARTESIAN COORDINATES (A.U.)
----------------------------
  NO LB      ZA    FRAG     MASS         X           Y           Z
   0 Ni   28.0000    0    58.700    2.026726    6.668981   -0.465033
   1 C     6.0000    0    12.011    4.518209    4.892825    1.280063
   2 C     6.0000    0    12.011    4.901425    4.855741   -1.365156
   3 H     1.0000    0     1.008    5.721180    6.075659    2.489618
   4 H     1.0000    0     1.008    3.824088    3.196486    2.254731
   5 H     1.0000    0     1.008    4.520163    3.126607   -2.448791
   6 H     1.0000    0     1.008    6.396615    6.017926   -2.216015

--------------------------------
INTERNAL COORDINATES (ANGSTROEM)
--------------------------------
 Ni     0   0   0     0.000000000000     0.00000000     0.00000000
 C      1   0   0     1.863994355402     0.00000000     0.00000000
 C      2   1   0     1.414538357528    67.55105853     0.00000000
 H      2   1   3     1.098506153278   114.28301164   114.12894053
 H      2   1   3     1.098517326565   114.08849813   245.83730695
 H      3   2   1     1.098540711083   120.11787955   253.79552520
 H      3   2   1     1.098629391417   120.06891854   105.62431755

---------------------------
INTERNAL COORDINATES (A.U.)
---------------------------
 Ni     0   0   0     0.000000000000     0.00000000     0.00000000
 C      1   0   0     3.522438846884     0.00000000     0.00000000
 C      2   1   0     2.673090101655    67.55105853     0.00000000
 H      2   1   3     2.075875786123   114.28301164   114.12894053
 H      2   1   3     2.075896900576   114.08849813   245.83730695
 H      3   2   1     2.075941090909   120.11787955   253.79552520
 H      3   2   1     2.076108672455   120.06891854   105.62431755



           ************************************************************
           *        Program running with 32 parallel MPI-processes    *
           *              working on a common directory               *
           ************************************************************
------------------------------------------------------------------------------
                   ___                                                        
                  /   \      - P O W E R E D   B Y -                         
                 /     \                                                     
                 |  |  |   _    _      __       _____    __    __             
                 |  |  |  | |  | |    /  \     |  _  \  |  |  /  |          
                  \  \/   | |  | |   /    \    | | | |  |  | /  /          
                 / \  \   | |__| |  /  /\  \   | |_| |  |  |/  /          
                |  |  |   |  __  | /  /__\  \  |    /   |      \           
                |  |  |   | |  | | |   __   |  |    \   |  |\   \          
                \     /   | |  | | |  |  |  |  | |\  \  |  | \   \       
                 \___/    |_|  |_| |__|  |__|  |_| \__\ |__|  \__/        
                                                                              
                      - O R C A' S   B I G   F R I E N D -                    
                                      &                                       
                       - I N T E G R A L  F E E D E R -                       
                                                                              
 v1 FN, 2020, v2 2021, v3 2022-2024                                           
------------------------------------------------------------------------------


----------------------
SHARK INTEGRAL PACKAGE
----------------------

Number of atoms                             ...      7
Number of basis functions                   ...     79
Number of shells                            ...     35
Maximum angular momentum                    ...      3
Integral batch strategy                     ... SHARK/LIBINT Hybrid
RI-J (if used) integral strategy            ... SPLIT-RIJ (Revised 2003 algorithm where possible)
Printlevel                                  ...      1
Contraction scheme used                     ... SEGMENTED contraction
Prescreening option                         ... SCHWARTZ
   Thresh                                   ... 1.000e-10
   Tcut                                     ... 3.000e-11
   Tpresel                                  ... 3.000e-11 
Coulomb Range Separation                    ... NOT USED
Exchange Range Separation                   ... NOT USED
Multipole approximations                    ... NOT USED
Finite Nucleus Model                        ... NOT USED
CABS basis                                  ... NOT available
Auxiliary Coulomb fitting basis             ... NOT available
Auxiliary J/K fitting basis                 ... NOT available
Auxiliary Correlation fitting basis         ... NOT available
Auxiliary 'external' fitting basis          ... NOT available

Checking pre-screening integrals            ... done (  0.0 sec) Dimension = 35
Check shell pair data                       ... done (  0.0 sec)
Shell pair information
Shell pair cut-off parameter TPreSel        ...   3.0e-11
Total number of shell pairs                 ...       630
Shell pairs after pre-screening             ...       624
Total number of primitive shell pairs       ...      2779
Primitive shell pairs kept                  ...      2278
          la=0 lb=0:    186 shell pairs
          la=1 lb=0:    207 shell pairs
          la=1 lb=1:     66 shell pairs
          la=2 lb=0:     76 shell pairs
          la=2 lb=1:     44 shell pairs
          la=2 lb=2:     10 shell pairs
          la=3 lb=0:     19 shell pairs
          la=3 lb=1:     11 shell pairs
          la=3 lb=2:      4 shell pairs
          la=3 lb=3:      1 shell pairs

Calculating one electron integrals          ... done (  0.0 sec)
Calculating Nuclear repulsion               ... done (  0.0 sec) ENN=    151.182117446447 Eh

Diagonalization of the overlap matrix:
Smallest eigenvalue                        ... 3.021e-03
Time for diagonalization                   ...    0.001 sec
Threshold for overlap eigenvalues          ... 1.000e-07
Number of eigenvalues below threshold      ... 0
Time for construction of square roots      ...    0.000 sec
Total time needed                          ...    0.002 sec

-------------------
DFT GRID GENERATION
-------------------

General Integration Accuracy     IntAcc      ... 4.388
Radial Grid Type                 RadialGrid  ... OptM3 with GC (2021)
Angular Grid (max. ang.)         AngularGrid ... 4 (Lebedev-302)
Angular grid pruning method      GridPruning ... 4 (adaptive)
Weight generation scheme         WeightScheme... mBecke (2022)
Basis function cutoff            BFCut       ... 3.0000e-11
Integration weight cutoff        WCut        ... 1.0000e-14
Partially contracted basis set               ... off
Rotationally invariant grid construction     ... off
Angular grids for H and He will be reduced by one unit
Core-polarized basis detected: some atoms will have their core
                               angular grid increased.

Total number of grid points                  ...    36364
Total number of batches                      ...      572
Average number of points per batch           ...       63
Average number of grid points per atom       ...     5195
Initializing property integral containers    ... done (  0.0 sec)

SHARK setup successfully completed in   0.3 seconds

Maximum memory used throughout the entire STARTUP-calculation: 12.5 MB


           ************************************************************
           *        Program running with 32 parallel MPI-processes    *
           *              working on a common directory               *
           ************************************************************
             **** ENERGY FILE WAS UPDATED (/scratch/orcascr/Ni0-C2H4/Ni0-C2H4.en.tmp) ****
Finished Guess after   0.1 sec
Maximum memory used throughout the entire GUESS-calculation: 6.4 MB


           ************************************************************
           *        Program running with 32 parallel MPI-processes    *
           *              working on a common directory               *
           ************************************************************
----------------------------------------D-I-I-S--------------------------------------------
Iteration    Energy (Eh)           Delta-E    RMSDP     MaxDP     DIISErr   Damp  Time(sec)
-------------------------------------------------------------------------------------------
               ***  Starting incremental Fock matrix formation  ***
    1    -1586.2456700077366349     0.00e+00  2.09e-04  4.69e-03  3.51e-03  0.700   0.1
Warning: op=0 Small HOMO/LUMO gap (   0.081) - skipping pre-diagonalization
         Will do a full diagonalization
                              *** Initializing SOSCF ***
---------------------------------------S-O-S-C-F--------------------------------------
Iteration    Energy (Eh)           Delta-E    RMSDP     MaxDP     MaxGrad    Time(sec)
--------------------------------------------------------------------------------------
    2    -1586.2457983176093421    -1.28e-04  6.08e-04  1.31e-02  2.46e-03     0.1
               *** Restarting incremental Fock matrix formation ***
    3    -1586.2461329567381654    -3.35e-04  1.18e-04  2.16e-03  1.17e-03     0.1
    4    -1586.2461188811969350     1.41e-05  9.75e-05  2.58e-03  2.45e-03     0.1
    5    -1586.2461454121623774    -2.65e-05  6.71e-05  1.32e-03  4.51e-04     0.1
    6    -1586.2461451493729783     2.63e-07  3.16e-05  7.48e-04  4.91e-04     0.1
                 **** Energy Check signals convergence ****

               *****************************************************
               *                     SUCCESS                       *
               *           SCF CONVERGED AFTER   6 CYCLES          *
               *****************************************************

             **** ENERGY FILE WAS UPDATED (/scratch/orcascr/Ni0-C2H4/Ni0-C2H4.en.tmp) ****

----------------
TOTAL SCF ENERGY
----------------

Total Energy       :      -1586.24614514937298 Eh          -43163.95202 eV

Components:
Nuclear Repulsion  :        151.18211744644717 Eh            4113.87456 eV
Electronic Energy  :      -1737.42826259582012 Eh          -47277.82658 eV
One Electron Energy:      -2500.64296569694125 Eh          -68045.95449 eV
Two Electron Energy:        763.21470310112113 Eh           20768.12790 eV

Virial components:
Potential Energy   :      -3169.76321187830854 Eh          -86253.64205 eV
Kinetic Energy     :       1583.51706672893579 Eh           43089.69002 eV
Virial Ratio       :          2.00172342848573

DFT components:
N(Alpha)           :       23.000033664659 electrons
N(Beta)            :       21.000006161429 electrons
N(Total)           :       44.000039826088 electrons
E(X)               :      -55.021487922850 Eh       
E(C)               :       -1.803584055625 Eh       
E(XC)              :      -56.825071978475 Eh       

---------------
SCF CONVERGENCE
---------------

  Last Energy change         ...   -2.6279e-07  Tolerance :   3.0000e-07
  Last MAX-Density change    ...    7.4814e-04  Tolerance :   3.0000e-06
  Last RMS-Density change    ...    3.1597e-05  Tolerance :   1.0000e-07
  Last DIIS Error            ...    2.4623e-03  Tolerance :   3.0000e-06
  Last Orbital Gradient      ...    4.9128e-04  Tolerance :   2.0000e-05
  Last Orbital Rotation      ...    3.5939e-04  Tolerance :   2.0000e-05


----------------------
UHF SPIN CONTAMINATION
----------------------

Warning: in a DFT calculation there is little theoretical justification to 
         calculate <S**2> as in Hartree-Fock theory. We will do it anyways
         but you should keep in mind that the values have only limited relevance

Expectation value of <S**2>     :     2.041858
Ideal value S*(S+1) for S=1.0   :     2.000000
Deviation                       :     0.041858

Total SCF time: 0 days 0 hours 0 min 0 sec 
Finished LeanSCF after   0.7 sec

Maximum memory used throughout the entire LEANSCF-calculation: 12.3 MB


-------------------------------------------------------------------------------
                          DFT DISPERSION CORRECTION                            
                                                                               
                              DFTD3 V3.1  Rev 1                                
                          USING Becke-Johnson damping                          
-------------------------------------------------------------------------------
-------------------------   ----------------
Dispersion correction           -0.003669160
-------------------------   ----------------


-------------------------   --------------------
FINAL SINGLE POINT ENERGY     -1586.249814309562
-------------------------   --------------------



           ************************************************************
           *        Program running with 32 parallel MPI-processes    *
           *              working on a common directory               *
           ************************************************************
------------------------------------------------------------------------------
                         ORCA SCF GRADIENT CALCULATION
------------------------------------------------------------------------------

Nuc. rep. gradient        (SHARK) ... done (  0.0 sec)
HCore & Overlap gradient  (SHARK) ... done (  0.0 sec)
Two-electron gradient     (SHARK) ... done (  0.3 sec)
XC gradient                       ... done (  0.0 sec)
Dispersion correction             ... done (  0.0 sec)

-------------------
DISPERSION GRADIENT
-------------------

   1   Ni  :   -0.000058945    0.000039473   -0.000009362
   2   C   :   -0.000001473   -0.000000547    0.000018509
   3   C   :    0.000003905   -0.000001074   -0.000018136
   4   H   :    0.000019983    0.000008915    0.000044728
   5   H   :   -0.000003554   -0.000026726    0.000041768
   6   H   :    0.000008517   -0.000027939   -0.000040246
   7   H   :    0.000031567    0.000007899   -0.000037260

Difference to translation invariance:
           :    0.0000000000    0.0000000000   -0.0000000000

Difference to rotation invariance:
           :    0.0000000000    0.0000000000   -0.0000000000

Norm of the Dispersion gradient    ...    0.0001252261
RMS gradient                       ...    0.0000273266
MAX gradient                       ...    0.0000589451

------------------
CARTESIAN GRADIENT
------------------

   1   Ni  :    0.050193019   -0.033522533    0.007740534
   2   C   :   -0.033499666    0.021849704    0.000402281
   3   C   :   -0.032300632    0.022021830   -0.010525320
   4   H   :    0.003317182   -0.003687169    0.000571946
   5   H   :    0.004392183   -0.001529099    0.000808656
   6   H   :    0.004763122   -0.001647076    0.000657507
   7   H   :    0.003134793   -0.003485658    0.000344396

Difference to translation invariance:
           :    0.0000000002   -0.0000000000   -0.0000000000

Difference to rotation invariance:
           :    0.0000445359   -0.0000326777    0.0000993220

Norm of the Cartesian gradient     ...    0.0838869814
RMS gradient                       ...    0.0183056401
MAX gradient                       ...    0.0501930185

-------
TIMINGS
-------

Total SCF gradient time     ....        0.430 sec

Densities                   ....       0.000 sec  (  0.1%)
One electron gradient       ....       0.019 sec  (  4.5%)
Two electron gradient       ....       0.323 sec  ( 74.9%)
XC gradient                 ....       0.046 sec  ( 10.6%)

Maximum memory used throughout the entire SCFGRAD-calculation: 26.6 MB
------------------------------------------------------------------------------
                         ORCA GEOMETRY RELAXATION STEP
------------------------------------------------------------------------------

Reading the OPT-File                    .... done
Getting information on internals        .... done
Copying old internal coords+grads       .... done
Making the new internal coordinates     .... (2022 redundants) done
Validating the new internal coordinates .... (2022 redundants) done
Calculating the B-matrix                .... done
Calculating the G,G- and P matrices     .... done
Transforming gradient to internals      .... done
Projecting the internal gradient        .... done
Number of atoms                         ....   7
Number of internal coordinates          ....  30
Current Energy                          .... -1586.249814310 Eh
Current gradient norm                   ....     0.083886981 Eh/bohr
Maximum allowed component of the step   ....  0.300
Current trust radius                    ....  0.300
Updating the Hessian (BFGS)             .... done
Forming the augmented Hessian           .... done
Diagonalizing the augmented Hessian     .... done
Last element of RFO vector              ....  0.946551567
Lowest eigenvalues of augmented Hessian:
 -0.011043372  0.059872027  0.086747557  0.128598174  0.132616380
Length of the computed step             ....  0.340765929
Warning: the length of the step is outside the trust region - taking restricted step instead
The input lambda is                     ....     0.052860
   iter:   5  x=    0.046271  g= 6298.409796 f(x)=    15.917101
   iter:  10  x=    0.003185  g=   17.394763 f(x)=     0.246649
   iter:  15  x=   -0.020942  g=    2.145516 f(x)=     0.000000
The output lambda is                    ....    -0.020942 (17 iterations)
The final length of the internal step   ....  0.300000000
Converting the step to Cartesian space:
 Initial RMS(Int)=    0.0547722558
Transforming coordinates:
 Iter   0:  RMS(Cart)=    0.0350848505 RMS(Int)=    0.0547969357
 Iter   5:  RMS(Cart)=    0.0000000292 RMS(Int)=    0.0000000265
done
Storing new coordinates                 .... done
The predicted energy change is          ....    -0.005958410
Previously predicted energy change      ....    -0.002572042
Actually observed energy change         ....    -0.004382539
Ratio of predicted to observed change   ....     1.703913895
New trust radius                        ....     0.200000000

                                .--------------------.
          ----------------------|Geometry convergence|-------------------------
          Item                value                   Tolerance       Converged
          ---------------------------------------------------------------------
          Energy change      -0.0043825386            0.0000050000      NO
          RMS gradient        0.0087327329            0.0001000000      NO
          MAX gradient        0.0305973924            0.0003000000      NO
          RMS step            0.0547722558            0.0020000000      NO
          MAX step            0.1226206872            0.0040000000      NO
          ........................................................
          Max(Bonds)      0.0486      Max(Angles)    3.70
          Max(Dihed)        7.03      Max(Improp)    0.00
          ---------------------------------------------------------------------

The optimization has not yet converged - more geometry cycles are needed


    ---------------------------------------------------------------------------
                         Redundant Internal Coordinates
                            (Angstroem and degrees)

        Definition                    Value    dE/dq     Step     New-Value
    ----------------------------------------------------------------------------
     1. B(C   1,Ni  0)                1.8640 -0.030185  0.0485    1.9124   
     2. B(C   2,C   1)                1.4145  0.011602 -0.0484    1.3661   
     3. B(C   2,Ni  0)                1.8606 -0.030597  0.0486    1.9092   
     4. B(H   3,C   1)                1.0985  0.000156 -0.0017    1.0968   
     5. B(H   4,C   1)                1.0985  0.000159 -0.0017    1.0968   
     6. B(H   5,C   2)                1.0985  0.000156 -0.0017    1.0969   
     7. B(H   6,C   2)                1.0986  0.000163 -0.0017    1.0969   
     8. A(C   1,Ni  0,C   2)           44.64  0.010654   -2.87     41.77   
     9. A(Ni  0,C   1,H   3)          114.28  0.003436   -3.18    111.11   
    10. A(H   3,C   1,H   4)          112.69 -0.001953    0.88    113.58   
    11. A(Ni  0,C   1,H   4)          114.09  0.004476   -3.67    110.42   
    12. A(C   2,C   1,H   3)          120.09  0.000073    1.44    121.53   
    13. A(C   2,C   1,H   4)          120.08  0.000204    1.43    121.51   
    14. A(Ni  0,C   1,C   2)           67.55 -0.005455    1.44     68.99   
    15. A(C   1,C   2,H   6)          120.07  0.000085    1.45    121.52   
    16. A(Ni  0,C   2,C   1)           67.81 -0.005199    1.44     69.24   
    17. A(Ni  0,C   2,H   6)          113.90  0.004698   -3.70    110.20   
    18. A(C   1,C   2,H   5)          120.12 -0.000013    1.45    121.57   
    19. A(H   5,C   2,H   6)          112.62 -0.002163    0.93    113.55   
    20. A(Ni  0,C   2,H   5)          114.40  0.003733   -3.28    111.12   
    21. D(H   4,C   1,Ni  0,C   2)   -114.16  0.002561   -3.01   -117.17   
    22. D(H   3,C   1,Ni  0,C   2)    114.13 -0.002467    2.90    117.03   
    23. D(H   5,C   2,Ni  0,C   1)    114.21 -0.002555    2.93    117.13   
    24. D(Ni  0,C   2,C   1,H   3)   -105.95 -0.001411    3.46   -102.49   
    25. D(Ni  0,C   2,C   1,H   4)    105.73  0.002605   -4.04    101.69   
    26. D(H   5,C   2,C   1,Ni  0)   -106.20 -0.001900    3.57   -102.64   
    27. D(H   5,C   2,C   1,H   4)     -0.48  0.000706   -0.47     -0.95   
    28. D(H   5,C   2,C   1,H   3)    147.84 -0.003310    7.03    154.87   
    29. D(H   6,C   2,C   1,Ni  0)    105.62  0.003012   -4.07    101.55   
    30. D(H   6,C   2,Ni  0,C   1)   -114.28  0.002639   -3.02   -117.29   
    ----------------------------------------------------------------------------

Geometry step timings:
Preparation and reading OPT file:      0.000 s (12.262 %)
Internal coordinates            :      0.000 s ( 1.907 %)
B/P matrices and projection     :      0.000 s (13.806 %)
Hessian update/contruction      :      0.000 s (17.530 %)
Making the step                 :      0.000 s (18.983 %)
Converting the step to Cartesian:      0.000 s ( 2.997 %)
Storing new data                :      0.000 s ( 2.361 %)
Checking convergence            :      0.000 s ( 0.908 %)
Final printing                  :      0.000 s (29.155 %)
Total time                      :      0.001 s

Time for energy+gradient        :      2.526 s
Time for complete geometry iter :      2.791 s

         *************************************************************
         *                GEOMETRY OPTIMIZATION CYCLE   3            *
         *************************************************************
---------------------------------
CARTESIAN COORDINATES (ANGSTROEM)
---------------------------------
  Ni     1.059274    3.537692   -0.248655
  C      2.432580    2.563814    0.659085
  C      2.628457    2.544110   -0.692073
  H      3.016871    3.223351    1.312286
  H      2.003698    1.703455    1.187202
  H      2.378810    1.661933   -1.294173
  H      3.365511    3.199124   -1.172694

----------------------------
CARTESIAN COORDINATES (A.U.)
----------------------------
  NO LB      ZA    FRAG     MASS         X           Y           Z
   0 Ni   28.0000    0    58.700    2.001737    6.685270   -0.469890
   1 C     6.0000    0    12.011    4.596910    4.844906    1.245490
   2 C     6.0000    0    12.011    4.967063    4.807671   -1.307828
   3 H     1.0000    0     1.008    5.701060    6.091250    2.479861
   4 H     1.0000    0     1.008    3.786441    3.219064    2.243486
   5 H     1.0000    0     1.008    4.495300    3.140598   -2.445632
   6 H     1.0000    0     1.008    6.359893    6.045468   -2.216070

--------------------------------
INTERNAL COORDINATES (ANGSTROEM)
--------------------------------
 Ni     0   0   0     0.000000000000     0.00000000     0.00000000
 C      1   0   0     1.912694975906     0.00000000     0.00000000
 C      2   1   0     1.365424251152    68.94396759     0.00000000
 H      2   1   3     1.096839197147   111.03541435   116.79062839
 H      2   1   3     1.096842416744   110.31299182   243.06032695
 H      3   2   1     1.096851404967   121.47689897   257.43273096
 H      3   2   1     1.096944867378   121.42215566   101.42619960

---------------------------
INTERNAL COORDINATES (A.U.)
---------------------------
 Ni     0   0   0     0.000000000000     0.00000000     0.00000000
 C      1   0   0     3.614469682189     0.00000000     0.00000000
 C      2   1   0     2.580277891292    68.94396759     0.00000000
 H      2   1   3     2.072725695558   111.03541435   116.79062839
 H      2   1   3     2.072731779714   110.31299182   243.06032695
 H      3   2   1     2.072748764995   121.47689897   257.43273096
 H      3   2   1     2.072925383356   121.42215566   101.42619960



           ************************************************************
           *        Program running with 32 parallel MPI-processes    *
           *              working on a common directory               *
           ************************************************************
------------------------------------------------------------------------------
                   ___                                                        
                  /   \      - P O W E R E D   B Y -                         
                 /     \                                                     
                 |  |  |   _    _      __       _____    __    __             
                 |  |  |  | |  | |    /  \     |  _  \  |  |  /  |          
                  \  \/   | |  | |   /    \    | | | |  |  | /  /          
                 / \  \   | |__| |  /  /\  \   | |_| |  |  |/  /          
                |  |  |   |  __  | /  /__\  \  |    /   |      \           
                |  |  |   | |  | | |   __   |  |    \   |  |\   \          
                \     /   | |  | | |  |  |  |  | |\  \  |  | \   \       
                 \___/    |_|  |_| |__|  |__|  |_| \__\ |__|  \__/        
                                                                              
                      - O R C A' S   B I G   F R I E N D -                    
                                      &                                       
                       - I N T E G R A L  F E E D E R -                       
                                                                              
 v1 FN, 2020, v2 2021, v3 2022-2024                                           
------------------------------------------------------------------------------


----------------------
SHARK INTEGRAL PACKAGE
----------------------

Number of atoms                             ...      7
Number of basis functions                   ...     79
Number of shells                            ...     35
Maximum angular momentum                    ...      3
Integral batch strategy                     ... SHARK/LIBINT Hybrid
RI-J (if used) integral strategy            ... SPLIT-RIJ (Revised 2003 algorithm where possible)
Printlevel                                  ...      1
Contraction scheme used                     ... SEGMENTED contraction
Prescreening option                         ... SCHWARTZ
   Thresh                                   ... 1.000e-10
   Tcut                                     ... 3.000e-11
   Tpresel                                  ... 3.000e-11 
Coulomb Range Separation                    ... NOT USED
Exchange Range Separation                   ... NOT USED
Multipole approximations                    ... NOT USED
Finite Nucleus Model                        ... NOT USED
CABS basis                                  ... NOT available
Auxiliary Coulomb fitting basis             ... NOT available
Auxiliary J/K fitting basis                 ... NOT available
Auxiliary Correlation fitting basis         ... NOT available
Auxiliary 'external' fitting basis          ... NOT available

Checking pre-screening integrals            ... done (  0.0 sec) Dimension = 35
Check shell pair data                       ... done (  0.0 sec)
Shell pair information
Shell pair cut-off parameter TPreSel        ...   3.0e-11
Total number of shell pairs                 ...       630
Shell pairs after pre-screening             ...       624
Total number of primitive shell pairs       ...      2779
Primitive shell pairs kept                  ...      2276
          la=0 lb=0:    186 shell pairs
          la=1 lb=0:    207 shell pairs
          la=1 lb=1:     66 shell pairs
          la=2 lb=0:     76 shell pairs
          la=2 lb=1:     44 shell pairs
          la=2 lb=2:     10 shell pairs
          la=3 lb=0:     19 shell pairs
          la=3 lb=1:     11 shell pairs
          la=3 lb=2:      4 shell pairs
          la=3 lb=3:      1 shell pairs

Calculating one electron integrals          ... done (  0.0 sec)
Calculating Nuclear repulsion               ... done (  0.0 sec) ENN=    149.365687926839 Eh

Diagonalization of the overlap matrix:
Smallest eigenvalue                        ... 2.601e-03
Time for diagonalization                   ...    0.001 sec
Threshold for overlap eigenvalues          ... 1.000e-07
Number of eigenvalues below threshold      ... 0
Time for construction of square roots      ...    0.000 sec
Total time needed                          ...    0.002 sec

-------------------
DFT GRID GENERATION
-------------------

General Integration Accuracy     IntAcc      ... 4.388
Radial Grid Type                 RadialGrid  ... OptM3 with GC (2021)
Angular Grid (max. ang.)         AngularGrid ... 4 (Lebedev-302)
Angular grid pruning method      GridPruning ... 4 (adaptive)
Weight generation scheme         WeightScheme... mBecke (2022)
Basis function cutoff            BFCut       ... 3.0000e-11
Integration weight cutoff        WCut        ... 1.0000e-14
Partially contracted basis set               ... off
Rotationally invariant grid construction     ... off
Angular grids for H and He will be reduced by one unit
Core-polarized basis detected: some atoms will have their core
                               angular grid increased.

Total number of grid points                  ...    36359
Total number of batches                      ...      573
Average number of points per batch           ...       63
Average number of grid points per atom       ...     5194
Initializing property integral containers    ... done (  0.0 sec)

SHARK setup successfully completed in   0.3 seconds

Maximum memory used throughout the entire STARTUP-calculation: 12.5 MB


           ************************************************************
           *        Program running with 32 parallel MPI-processes    *
           *              working on a common directory               *
           ************************************************************
             **** ENERGY FILE WAS UPDATED (/scratch/orcascr/Ni0-C2H4/Ni0-C2H4.en.tmp) ****
Finished Guess after   0.1 sec
Maximum memory used throughout the entire GUESS-calculation: 6.4 MB


           ************************************************************
           *        Program running with 32 parallel MPI-processes    *
           *              working on a common directory               *
           ************************************************************
----------------------------------------D-I-I-S--------------------------------------------
Iteration    Energy (Eh)           Delta-E    RMSDP     MaxDP     DIISErr   Damp  Time(sec)
-------------------------------------------------------------------------------------------
               ***  Starting incremental Fock matrix formation  ***
    1    -1586.2500211653186852     0.00e+00  5.00e-04  1.17e-02  1.08e-02  0.700   0.1
Warning: op=0 Small HOMO/LUMO gap (   0.094) - skipping pre-diagonalization
         Will do a full diagonalization
    2    -1586.2506791714447445    -6.58e-04  4.38e-04  9.72e-03  7.54e-03  0.700   0.1
                               ***Turning on AO-DIIS***
    3    -1586.2511962490007136    -5.17e-04  3.18e-04  6.76e-03  5.28e-03  0.700   0.1
    4    -1586.2515688168418819    -3.73e-04  8.35e-04  1.81e-02  3.69e-03  0.000   0.1
                              *** Initializing SOSCF ***
---------------------------------------S-O-S-C-F--------------------------------------
Iteration    Energy (Eh)           Delta-E    RMSDP     MaxDP     MaxGrad    Time(sec)
--------------------------------------------------------------------------------------
    5    -1586.2525418866848668    -9.73e-04  5.09e-05  1.21e-03  5.09e-04     0.1
               *** Restarting incremental Fock matrix formation ***
    6    -1586.2525479159944553    -6.03e-06  7.00e-05  2.52e-03  6.38e-04     0.1
    7    -1586.2525494228739262    -1.51e-06  7.00e-05  1.11e-03  8.59e-04     0.1
    8    -1586.2525533922753311    -3.97e-06  3.47e-05  8.30e-04  3.40e-04     0.1
    9    -1586.2525548528717536    -1.46e-06  2.34e-05  7.62e-04  2.29e-04     0.1
   10    -1586.2525563770932422    -1.52e-06  6.19e-05  2.42e-03  1.85e-04     0.1
   11    -1586.2525581934610273    -1.82e-06  5.71e-05  2.24e-03  1.46e-04     0.1
[...]


----------------------
SHARK INTEGRAL PACKAGE
----------------------

Number of atoms                             ...      7
Number of basis functions                   ...     79
Number of shells                            ...     35
Maximum angular momentum                    ...      3
Integral batch strategy                     ... SHARK/LIBINT Hybrid
RI-J (if used) integral strategy            ... SPLIT-RIJ (Revised 2003 algorithm where possible)
Printlevel                                  ...      1
Contraction scheme used                     ... SEGMENTED contraction
Prescreening option                         ... SCHWARTZ
   Thresh                                   ... 1.000e-10
   Tcut                                     ... 3.000e-11
   Tpresel                                  ... 3.000e-11 
Coulomb Range Separation                    ... NOT USED
Exchange Range Separation                   ... NOT USED
Multipole approximations                    ... NOT USED
Finite Nucleus Model                        ... NOT USED
CABS basis                                  ... NOT available
Auxiliary Coulomb fitting basis             ... NOT available
Auxiliary J/K fitting basis                 ... NOT available
Auxiliary Correlation fitting basis         ... NOT available
Auxiliary 'external' fitting basis          ... NOT available

Checking pre-screening integrals            ... done (  0.0 sec) Dimension = 35
Check shell pair data                       ... done (  0.0 sec)
Shell pair information
Shell pair cut-off parameter TPreSel        ...   3.0e-11
Total number of shell pairs                 ...       630
Shell pairs after pre-screening             ...       624
Total number of primitive shell pairs       ...      2779
Primitive shell pairs kept                  ...      2247
          la=0 lb=0:    186 shell pairs
          la=1 lb=0:    207 shell pairs
          la=1 lb=1:     66 shell pairs
          la=2 lb=0:     76 shell pairs
          la=2 lb=1:     44 shell pairs
          la=2 lb=2:     10 shell pairs
          la=3 lb=0:     19 shell pairs
          la=3 lb=1:     11 shell pairs
          la=3 lb=2:      4 shell pairs
          la=3 lb=3:      1 shell pairs

Calculating one electron integrals          ... done (  0.0 sec)
Calculating Nuclear repulsion               ... done (  0.0 sec) ENN=    142.204581508232 Eh

Diagonalization of the overlap matrix:
Smallest eigenvalue                        ... 2.953e-03
Time for diagonalization                   ...    0.001 sec
Threshold for overlap eigenvalues          ... 1.000e-07
Number of eigenvalues below threshold      ... 0
Time for construction of square roots      ...    0.000 sec
Total time needed                          ...    0.002 sec

-------------------
DFT GRID GENERATION
-------------------

General Integration Accuracy     IntAcc      ... 4.388
Radial Grid Type                 RadialGrid  ... OptM3 with GC (2021)
Angular Grid (max. ang.)         AngularGrid ... 4 (Lebedev-302)
Angular grid pruning method      GridPruning ... 4 (adaptive)
Weight generation scheme         WeightScheme... mBecke (2022)
Basis function cutoff            BFCut       ... 3.0000e-11
Integration weight cutoff        WCut        ... 1.0000e-14
Partially contracted basis set               ... off
Rotationally invariant grid construction     ... off
Angular grids for H and He will be reduced by one unit
Core-polarized basis detected: some atoms will have their core
                               angular grid increased.

Total number of grid points                  ...    36388
Total number of batches                      ...      572
Average number of points per batch           ...       63
Average number of grid points per atom       ...     5198
Initializing property integral containers    ... done (  0.0 sec)

SHARK setup successfully completed in   0.3 seconds

Maximum memory used throughout the entire STARTUP-calculation: 12.5 MB


           ************************************************************
           *        Program running with 32 parallel MPI-processes    *
           *              working on a common directory               *
           ************************************************************
             **** ENERGY FILE WAS UPDATED (/scratch/orcascr/Ni0-C2H4/Ni0-C2H4.en.tmp) ****
Finished Guess after   0.1 sec
Maximum memory used throughout the entire GUESS-calculation: 6.4 MB


           ************************************************************
           *        Program running with 32 parallel MPI-processes    *
           *              working on a common directory               *
           ************************************************************
----------------------------------------D-I-I-S--------------------------------------------
Iteration    Energy (Eh)           Delta-E    RMSDP     MaxDP     DIISErr   Damp  Time(sec)
-------------------------------------------------------------------------------------------
               ***  Starting incremental Fock matrix formation  ***
                              *** Initializing SOSCF ***
---------------------------------------S-O-S-C-F--------------------------------------
Iteration    Energy (Eh)           Delta-E    RMSDP     MaxDP     MaxGrad    Time(sec)
--------------------------------------------------------------------------------------
    1    -1586.2583063923834743     0.00e+00  9.16e-06  8.37e-05  3.81e-05     0.1
               *** Restarting incremental Fock matrix formation ***
    2    -1586.2583065779151639    -1.86e-07  1.34e-05  2.04e-04  7.72e-05     0.1
    3    -1586.2583063479610246     2.30e-07  9.32e-06  1.78e-04  2.85e-04     0.1
                 **** Energy Check signals convergence ****

               *****************************************************
               *                     SUCCESS                       *
               *           SCF CONVERGED AFTER   3 CYCLES          *
               *****************************************************

             **** ENERGY FILE WAS UPDATED (/scratch/orcascr/Ni0-C2H4/Ni0-C2H4.en.tmp) ****

----------------
TOTAL SCF ENERGY
----------------

Total Energy       :      -1586.25830634796102 Eh          -43164.28295 eV

Components:
Nuclear Repulsion  :        142.20458150823197 Eh            3869.58339 eV
Electronic Energy  :      -1728.46288785619299 Eh          -47033.86633 eV
One Electron Energy:      -2483.71181463492894 Eh          -67585.23444 eV
Two Electron Energy:        755.24892677873595 Eh           20551.36811 eV

Virial components:
Potential Energy   :      -3169.69900426360618 Eh          -86251.89487 eV
Kinetic Energy     :       1583.44069791564516 Eh           43087.61192 eV
Virial Ratio       :          2.00177942150661

DFT components:
N(Alpha)           :       23.000020807890 electrons
N(Beta)            :       20.999999145904 electrons
N(Total)           :       44.000019953794 electrons
E(X)               :      -55.018402677149 Eh       
E(C)               :       -1.796787592755 Eh       
E(XC)              :      -56.815190269904 Eh       

---------------
SCF CONVERGENCE
---------------

  Last Energy change         ...   -2.2995e-07  Tolerance :   3.0000e-07
  Last MAX-Density change    ...    1.7760e-04  Tolerance :   3.0000e-06
  Last RMS-Density change    ...    9.3182e-06  Tolerance :   1.0000e-07
  Last DIIS Error            ...    7.6181e-05  Tolerance :   3.0000e-06
  Last Orbital Gradient      ...    2.8482e-04  Tolerance :   2.0000e-05
  Last Orbital Rotation      ...    3.4028e-04  Tolerance :   2.0000e-05


----------------------
UHF SPIN CONTAMINATION
----------------------

Warning: in a DFT calculation there is little theoretical justification to 
         calculate <S**2> as in Hartree-Fock theory. We will do it anyways
         but you should keep in mind that the values have only limited relevance

Expectation value of <S**2>     :     2.066344
Ideal value S*(S+1) for S=1.0   :     2.000000
Deviation                       :     0.066344

----------------
ORBITAL ENERGIES
----------------
                 SPIN UP ORBITALS
  NO   OCC          E(Eh)            E(eV) 
   0   1.0000    -300.119338     -8166.6624 
   1   1.0000     -35.882952      -976.4248 
   2   1.0000     -31.292702      -851.5177 
   3   1.0000     -31.273512      -850.9955 
   4   1.0000     -31.270718      -850.9195 
   5   1.0000     -10.256656      -279.0978 
   6   1.0000     -10.256083      -279.0822 
   7   1.0000      -4.077225      -110.9469 
   8   1.0000      -2.684086       -73.0377 
   9   1.0000      -2.642846       -71.9155 
  10   1.0000      -2.634609       -71.6914 
  11   1.0000      -0.801640       -21.8137 
  12   1.0000      -0.612187       -16.6585 
  13   1.0000      -0.499515       -13.5925 
  14   1.0000      -0.459079       -12.4922 
  15   1.0000      -0.386284       -10.5113 
  16   1.0000      -0.369828       -10.0635 
  17   1.0000      -0.328823        -8.9477 
  18   1.0000      -0.298877        -8.1328 
  19   1.0000      -0.295805        -8.0493 
  20   1.0000      -0.295349        -8.0368 
  21   1.0000      -0.273798        -7.4504 
  22   1.0000      -0.141981        -3.8635 
  23   0.0000      -0.042896        -1.1673 
  24   0.0000       0.066379         1.8063 
  25   0.0000       0.070878         1.9287 
  26   0.0000       0.100794         2.7427 
  27   0.0000       0.106763         2.9052 
  28   0.0000       0.132894         3.6162 
  29   0.0000       0.173142         4.7114 
  30   0.0000       0.185396         5.0449 
  31   0.0000       0.256754         6.9866 
  32   0.0000       0.295113         8.0304 
  33   0.0000       0.405244        11.0272 

                 SPIN DOWN ORBITALS
  NO   OCC          E(Eh)            E(eV) 
   0   1.0000    -300.117989     -8166.6257 
   1   1.0000     -35.853230      -975.6160 
   2   1.0000     -31.257634      -850.5635 
   3   1.0000     -31.253129      -850.4409 
   4   1.0000     -31.252492      -850.4235 
   5   1.0000     -10.256965      -279.1062 
   6   1.0000     -10.256410      -279.0911 
   7   1.0000      -4.008412      -109.0744 
   8   1.0000      -2.582940       -70.2854 
   9   1.0000      -2.579640       -70.1956 
  10   1.0000      -2.578522       -70.1651 
  11   1.0000      -0.802115       -21.8267 
  12   1.0000      -0.614865       -16.7313 
  13   1.0000      -0.499602       -13.5949 
  14   1.0000      -0.457921       -12.4607 
  15   1.0000      -0.386683       -10.5222 
  16   1.0000      -0.349448        -9.5090 
  17   1.0000      -0.270481        -7.3602 
  18   1.0000      -0.267124        -7.2688 
  19   1.0000      -0.236507        -6.4357 
  20   1.0000      -0.231702        -6.3049 
  21   0.0000      -0.048758        -1.3268 
  22   0.0000      -0.025539        -0.6949 
  23   0.0000      -0.005028        -0.1368 
  24   0.0000       0.082193         2.2366 
  25   0.0000       0.098044         2.6679 
  26   0.0000       0.109784         2.9874 
  27   0.0000       0.112939         3.0732 
  28   0.0000       0.164766         4.4835 
  29   0.0000       0.185413         5.0453 
  30   0.0000       0.197487         5.3739 
  31   0.0000       0.287603         7.8261 
*Only the first 10 virtual orbitals were printed.
Total SCF time: 0 days 0 hours 0 min 0 sec 
Finished LeanSCF after   0.4 sec

Maximum memory used throughout the entire LEANSCF-calculation: 13.2 MB


-------------------------------------------------------------------------------
                          DFT DISPERSION CORRECTION                            
                                                                               
                              DFTD3 V3.1  Rev 1                                
                          USING Becke-Johnson damping                          
-------------------------------------------------------------------------------
-------------------------   ----------------
Dispersion correction           -0.003662111
-------------------------   ----------------


-------------------------   --------------------
FINAL SINGLE POINT ENERGY     -1586.261968458744
-------------------------   --------------------

                                *** OPTIMIZATION RUN DONE ***



           ************************************************************
           *        Program running with 32 parallel MPI-processes    *
           *              working on a common directory               *
           ************************************************************

------------------------------------------------------------------------------
                              ORCA PROPERTY CALCULATIONS
------------------------------------------------------------------------------

GBWName                                 ... /scratch/orcascr/Ni0-C2H4/Ni0-C2H4.gbw
Number of atoms                         ...      7
Number of basis functions               ...     79
Max core memory                         ...   4000 MB

Electric properties:
Dipole moment                           ... YES
Quadrupole moment                       ...  NO
Static polarizability (Dipole/Dipole)   ...  NO
Static polarizability (Dipole/Quad.)    ...  NO
Static polarizability (Quad./Quad.)     ...  NO
Static polarizability (Velocity)        ...  NO

Atomic electric properties:
Dipole moment                           ...  NO
Quadrupole moment                       ...  NO
Static polarizability                   ...  NO

Choice of electric origin               ... Center of mass
Position of electric origin             ...     2.836058     6.126570    -0.336616

General magnetic properties:
Magnetizability                         ...  NO

EPR properties:
g-Tensor (aka g-matrix)                 ...  NO
Zero-Field splitting spin-orbit         ...  NO
Zero-field splitting spin-spin          ...  NO
Hyperfine couplings                     ...  NO (   0 nuclei)
Quadrupole couplings                    ...  NO (   0 nuclei)
Contact density                         ...  NO (   0 nuclei)

NMR properties:
Chemical shifts                         ...  NO (   0 nuclei)
Spin-rotation constants                 ...  NO (   0 nuclei)
Spin-spin couplings                     ...  NO (   0 nuclei,    0 pairs)

Choice of magnetic origin               ... GIAO
Position of magnetic origin             ...     0.000000     0.000000     0.000000

Properties with geometric perturbations:
SCF Hessian                             ...  NO
IR spectrum                             ...  NO
VCD spectrum                            ...  NO
X-ray spectroscopy properties:
SCF XES/XAS/RIXS spectra                ...  NO


-------------
DIPOLE MOMENT
-------------

Method             : SCF
Type of density    : Electron Density
Multiplicity       :   3
Irrep              :   0
Energy             : -1586.2583063479610246 Eh
Relativity type    : 
Basis              : AO
                                X                 Y                 Z
Electronic contribution:     -5.177512361       3.457904966      -0.809367130
Nuclear contribution   :      5.764192703      -3.849639994       0.901522354
                        -----------------------------------------
Total Dipole Moment    :      0.586680342      -0.391735028       0.092155224
                        -----------------------------------------
Magnitude (a.u.)       :      0.711437096
Magnitude (Debye)      :      1.808329388



--------------------
Rotational spectrum 
--------------------
 
Rotational constants in cm-1:             0.790432             0.222892             0.187225 
Rotational constants in MHz :         23696.550991          6682.130151          5612.859407 

Dipole components along the rotational axes: 
x,y,z [a.u.] :     0.711437    -0.000012     0.000146 
x,y,z [Debye]:     1.808329    -0.000030     0.000372 

 

Dipole moment calculation done in   0.0 sec 

Maximum memory used throughout the entire PROP-calculation: 4.1 MB

--------------------------------
SUGGESTED CITATIONS FOR THIS RUN
--------------------------------

Below you find a list of papers that are relevant to this ORCA run
We neither can nor want to force you to cite these papers, but we appreciate if you do
You receive ORCA, which is the product of decades of hard work by many enthusiastic individuals, for free
The only thing we kindly ask in return is that you cite our papers,
We deeply appreciate it, if you show your appreciation for ORCA by not just citing the generic ORCA reference.

Please note that relegating all ORCA citations to the supporting information does *not* help us.
SI sections are not indexed - citations you put there will not count into any citation statistics
But we need these citations in order to attract the funding resources that allow us to do what we are doing

Therefore, if you are a happy ORCA user, please consider citing a few of the papers listed below in the main body of your paper

In addition to the list printed below, the program has created the file /scratch/orcascr/Ni0-C2H4/Ni0-C2H4.bibtex that contains the list in bibtex format
You can import this file easily into all common literature databanks and citation aid programs


List of essential papers. We consider these as the minimum necessary citations

  1. Neese,F.
     Software update: the ORCA program system, version 5.0
     WIRES Comput. Molec. Sci., 2022 12(1)e1606
     doi.org/10.1002/wcms.1606

List of papers to cite with high priority. The work reported in these papers was absolutely
necessary for this run to complete.
Our perspective: the developers of density functionals and basis sets usually get cited in chemistry papers
Good! But without the algorithms to do something with them, the functionals or basis sets would not do anything.
Hence, in our opinion, the algorithm design and method developments papers are equally worthy of getting cited

  1. Neese,F.
     The SHARK Integral Generation and Digestion System
     J. Comp. Chem., 2022  1-16
     doi.org/10.1002/jcc.26942
  2. Grimme,S.; Antony,J.; Ehrlich,S.; Krieg,H.
     A consistent and accurate ab initio parametrization of density functional dispersion correction (DFT-D) for the 94 elements H-Pu
     J. Chem. Phys., 2010 132 154104
     doi.org/10.1063/1.3382344
  3. Grimme,S.; Ehrlich,S.; Goerigk,L.
     Effect of the damping function in dispersion corrected density functional theory
     J. Comput. Chem., 2011 32(7)1456-1465
     doi.org/10.1002/jcc.21759

List of suggested additional citations. These are papers that are important in the 'surrounding' of 
of this run, or papers that preceded the highly important papers. If you like your results we are grateful for a citation.

  1. Neese,F.
     The ORCA program system
     WIRES Comput. Molec. Sci., 2012 2(1)73-78
     doi.org/10.1002/wcms.81
  2. Neese,F.
     Software update: the ORCA program system, version 4.0
     WIRES Comput. Molec. Sci., 2018 8(1)1-6
     doi.org/10.1002/wcms.1327
  3. Neese,F.; Wennmohs,F.; Becker,U.; Riplinger,C.
     The ORCA quantum chemistry program package
     J. Chem. Phys., 2020 152 Art. No. L224108
     doi.org/10.1063/5.0004608

List of optional additional citations

  1. Neese,F.
     Approximate second-order SCF convergence for spin unrestricted wavefunctions
     Chem. Phys. Lett., 2000 325(1-3)93-98
     doi.org/10.1016/s0009-2614(00)00662-x

Timings for individual modules:

Sum of individual times          ...       30.076 sec (=   0.501 min)
Startup calculation              ...        6.254 sec (=   0.104 min)  20.8 %
SCF iterations                   ...       15.774 sec (=   0.263 min)  52.4 %
Property calculations            ...        0.282 sec (=   0.005 min)   0.9 %
SCF Gradient evaluation          ...        7.741 sec (=   0.129 min)  25.7 %
Geometry relaxation              ...        0.026 sec (=   0.000 min)   0.1 %
                             ****ORCA TERMINATED NORMALLY****
TOTAL RUN TIME: 0 days 0 hours 0 minutes 33 seconds 345 msec
