[Molden Format]
[Title]
generated by TRESC, real part1 of MOs of job O3
 
[Atoms] AU
 O   1   8   -4.5402454961    7.2177128343   -2.7178598716
 O   2   8   -2.2158043353    7.0339313734   -2.7178598716
 O   3   8   -5.4895719187    9.3477159757   -2.7178598716
[GTO]
  1 0
 s  5 1.0
     2256.4894524000        0.0059167515
      338.4991392200        0.0411156308
       76.9063833050        0.1812996088
       21.4088621130        0.4670469627
        6.6523625585        0.4440133421
 s  1 1.0
        0.8121693602        1.0000000000
 s  1 1.0
        0.2558870496        1.0000000000
 p  3 1.0
       17.7535366450        0.0431495830
        3.8671566736        0.2292558699
        1.0487786113        0.5099918107
 p  1 1.0
        0.2765100171        1.0000000000
 d  1 1.0
        1.2000000000        1.0000000000
 
  2 0
 s  5 1.0
     2256.4894524000        0.0059167515
      338.4991392200        0.0411156308
       76.9063833050        0.1812996088
       21.4088621130        0.4670469627
        6.6523625585        0.4440133421
 s  1 1.0
        0.8121693602        1.0000000000
 s  1 1.0
        0.2558870496        1.0000000000
 p  3 1.0
       17.7535366450        0.0431495830
        3.8671566736        0.2292558699
        1.0487786113        0.5099918107
 p  1 1.0
        0.2765100171        1.0000000000
 d  1 1.0
        1.2000000000        1.0000000000
 
  3 0
 s  5 1.0
     2256.4894524000        0.0059167515
      338.4991392200        0.0411156308
       76.9063833050        0.1812996088
       21.4088621130        0.4670469627
        6.6523625585        0.4440133421
 s  1 1.0
        0.8121693602        1.0000000000
 s  1 1.0
        0.2558870496        1.0000000000
 p  3 1.0
       17.7535366450        0.0431495830
        3.8671566736        0.2292558699
        1.0487786113        0.5099918107
 p  1 1.0
        0.2765100171        1.0000000000
 d  1 1.0
        1.2000000000        1.0000000000
 
[5D]
[7F]
[9G]
[MO]
 Ene=  -0.19459869360853E+02
 Spin= Alpha
 Occup=    0.000000
   1      0.000000000000
   2      0.000000000000
   3      0.000000000000
   4      0.000000000000
   5      0.000000000000
   6      0.000000000000
   7      0.000000000000
   8      0.000000000000
   9      0.000000000000
  10      0.000000000000
  11      0.000000000000
  12      0.000000000000
  13      0.000000000000
  14      0.000000000000
  15      0.000000000000
  16      0.000000000000
  17      0.000000000000
  18      0.000000000000
  19      0.000000000000
  20      0.000000000000
  21      0.000000000000
  22      0.000000000000
  23      0.000000000000
  24      0.000000000000
  25      0.000000000000
  26      0.000000000000
  27      0.000000000000
  28      0.000000000000
  29      0.000000000000
  30      0.000000000000
  31      0.000000000000
  32      0.000000000000
  33      0.000000000000
  34      0.000000000000
  35      0.000000000000
  36      0.000000000000
  37      0.000000000000
  38      0.000000000000
  39      0.000000000000
  40      0.000000000000
  41      0.000000000000
  42      0.000000000000
 Ene=  -0.19459869360853E+02
 Spin= Alpha
 Occup=    1.000000
   1      0.988532843022
   2      0.041264657437
   3     -0.027618112525
   4      0.001547721133
   5      0.002188621419
   6     -0.000000000000
   7     -0.003916588691
   8     -0.005541488371
   9      0.000000000000
  10      0.000004170156
  11     -0.000000000000
  12     -0.000000000000
  13      0.000111635166
  14     -0.000313555792
  15     -0.000282418270
  16     -0.001396324847
  17      0.008197901621
  18      0.000783099857
  19     -0.000011494727
  20     -0.000000000000
  21     -0.003701375142
  22      0.001248529554
  23      0.000000000000
  24      0.000861923848
  25     -0.000000000000
  26      0.000000000000
  27     -0.001346326370
  28     -0.000145339209
  29     -0.000282597377
  30     -0.001395672502
  31      0.008196364062
  32     -0.000271849436
  33      0.000733351317
  34      0.000000000000
  35      0.002412344779
  36     -0.003072353045
  37      0.000000000000
  38      0.000861453592
  39      0.000000000000
  40     -0.000000000000
  41      0.001137184867
  42      0.000733762085
 Ene=  -0.19272317044075E+02
 Spin= Alpha
 Occup=    1.000000
   1      0.000178274448
   2     -0.000190506220
   3      0.000856986905
   4     -0.000963137698
   5      0.000579818184
   6      0.000000000000
   7      0.003793574670
   8     -0.002587340974
   9     -0.000000000000
  10      0.000197314588
  11     -0.000000000000
  12     -0.000000000000
  13     -0.001787070661
  14     -0.000477068789
  15      0.789756005716
  16      0.031624257358
  17     -0.016373238223
  18     -0.002062838055
  19      0.000431047993
  20      0.000000000000
  21      0.004508902713
  22     -0.000736270269
  23     -0.000000000000
  24      0.000040668649
  25      0.000000000000
  26     -0.000000000000
  27      0.000158970027
  28     -0.000052818132
  29     -0.594822976456
  30     -0.024196272527
  31      0.013241314574
  32     -0.000953959990
  33      0.001401216271
  34      0.000000000000
  35      0.002090824615
  36     -0.003444242960
  37     -0.000000000000
  38     -0.000106629832
  39     -0.000000000000
  40     -0.000000000000
  41      0.000060184464
  42      0.000091325456
 Ene=  -0.19272317044075E+02
 Spin= Alpha
 Occup=   -0.000000
   1      0.000000000000
   2      0.000000000000
   3      0.000000000000
   4      0.000000000000
   5      0.000000000000
   6      0.000000000000
   7      0.000000000000
   8      0.000000000000
   9      0.000000000000
  10      0.000000000000
  11      0.000000000000
  12      0.000000000000
  13      0.000000000000
  14      0.000000000000
  15      0.000000000000
  16      0.000000000000
  17      0.000000000000
  18      0.000000000000
  19      0.000000000000
  20      0.000000000000
  21      0.000000000000
  22      0.000000000000
  23      0.000000000000
  24      0.000000000000
  25      0.000000000000
  26      0.000000000000
  27      0.000000000000
  28      0.000000000000
  29      0.000000000000
  30      0.000000000000
  31      0.000000000000
  32      0.000000000000
  33      0.000000000000
  34      0.000000000000
  35      0.000000000000
  36      0.000000000000
  37      0.000000000000
  38      0.000000000000
  39      0.000000000000
  40      0.000000000000
  41      0.000000000000
  42      0.000000000000
 Ene=  -0.19272164727633E+02
 Spin= Alpha
 Occup=   -0.000000
   1      0.000000000000
   2      0.000000000000
   3      0.000000000000
   4      0.000000000000
   5      0.000000000000
   6      0.000000000000
   7      0.000000000000
   8      0.000000000000
   9      0.000000000000
  10      0.000000000000
  11      0.000000000000
  12      0.000000000000
  13      0.000000000000
  14      0.000000000000
  15      0.000000000000
  16      0.000000000000
  17      0.000000000000
  18      0.000000000000
  19      0.000000000000
  20      0.000000000000
  21      0.000000000000
  22      0.000000000000
  23      0.000000000000
  24      0.000000000000
  25      0.000000000000
  26      0.000000000000
  27      0.000000000000
  28      0.000000000000
  29      0.000000000000
  30      0.000000000000
  31      0.000000000000
  32      0.000000000000
  33      0.000000000000
  34      0.000000000000
  35      0.000000000000
  36      0.000000000000
  37      0.000000000000
  38      0.000000000000
  39      0.000000000000
  40      0.000000000000
  41      0.000000000000
  42      0.000000000000
 Ene=  -0.19272164727633E+02
 Spin= Alpha
 Occup=    1.000000
   1      0.001265448996
   2     -0.001350097041
   3      0.006079669175
   4     -0.000207744182
   5     -0.000566230348
   6     -0.000000000000
   7     -0.000214547332
   8      0.000817150828
   9      0.000000000000
  10      0.001399350496
  11      0.000000000000
  12     -0.000000000000
  13     -0.000103561085
  14      0.001068398117
  15      0.595003411894
  16      0.022455565278
  17     -0.009036870677
  18     -0.001241852998
  19     -0.000062575601
  20     -0.000000000000
  21      0.001407834652
  22      0.000410569551
  23     -0.000000000000
  24     -0.000243968924
  25      0.000000000000
  26     -0.000000000000
  27      0.000174434861
  28     -0.000063478192
  29      0.789892158844
  30      0.030312268222
  31     -0.013205627461
  32      0.000643693194
  33     -0.001641486965
  34     -0.000000000000
  35     -0.000686813901
  36      0.002512881420
  37     -0.000000000000
  38     -0.000222891760
  39      0.000000000000
  40      0.000000000000
  41     -0.000116374648
  42     -0.000191493155
 Ene=  -0.13945086865709E+01
 Spin= Alpha
 Occup=    1.000000
   1      0.238267176924
   2     -0.491791566858
   3     -0.229608523039
   4     -0.081424764558
   5     -0.115031029505
   6      0.000000000000
   7     -0.030693882557
   8     -0.043393314366
   9      0.000000000000
  10      0.014342978693
  11     -0.000000000000
  12     -0.000000000000
  13     -0.002658712182
  14      0.007477476738
  15      0.119927077083
  16     -0.240645923874
  17     -0.077630596258
  18      0.128857444463
  19     -0.019973569097
  20      0.000000000000
  21      0.021567473062
  22     -0.000062761845
  23      0.000000000000
  24      0.007697077659
  25      0.000000000000
  26     -0.000000000000
  27     -0.015008397006
  28      0.004540813254
  29      0.119825435402
  30     -0.240439496581
  31     -0.077562649430
  32     -0.061800561562
  33      0.114695828400
  34      0.000000000000
  35     -0.007250834641
  36      0.020291860206
  37      0.000000000000
  38      0.007692198447
  39      0.000000000000
  40      0.000000000000
  41      0.008798031606
  42      0.012966466120
 Ene=  -0.13945086865709E+01
 Spin= Alpha
 Occup=    0.000000
   1      0.000000000000
   2      0.000000000000
   3      0.000000000000
   4      0.000000000000
   5      0.000000000000
   6      0.000000000000
   7      0.000000000000
   8      0.000000000000
   9      0.000000000000
  10      0.000000000000
  11      0.000000000000
  12      0.000000000000
  13      0.000000000000
  14      0.000000000000
  15      0.000000000000
  16      0.000000000000
  17      0.000000000000
  18      0.000000000000
  19      0.000000000000
  20      0.000000000000
  21      0.000000000000
  22      0.000000000000
  23      0.000000000000
  24      0.000000000000
  25      0.000000000000
  26      0.000000000000
  27      0.000000000000
  28      0.000000000000
  29      0.000000000000
  30      0.000000000000
  31      0.000000000000
  32      0.000000000000
  33      0.000000000000
  34      0.000000000000
  35      0.000000000000
  36      0.000000000000
  37      0.000000000000
  38      0.000000000000
  39      0.000000000000
  40      0.000000000000
  41      0.000000000000
  42      0.000000000000
 Ene=  -0.11161579601463E+01
 Spin= Alpha
 Occup=    1.000000
   1      0.000061057615
   2     -0.000124863068
   3     -0.000103469178
   4      0.283571052586
   5     -0.200433716571
   6      0.000000000000
   7      0.082382554428
   8     -0.058248380654
   9      0.000000000000
  10      0.000002726710
  11      0.000000000000
  12     -0.000000000000
  13      0.028613823717
  14      0.010132899718
  15     -0.183999724720
  16      0.376884304184
  17      0.199974203682
  18     -0.135331472226
  19     -0.006372692308
  20     -0.000000000000
  21     -0.041231561114
  22      0.002336715649
  23     -0.000000000000
  24     -0.006421544586
  25     -0.000000000000
  26     -0.000000000000
  27      0.015756529868
  28      0.000284431377
  29      0.184070402336
  30     -0.377022783668
  31     -0.200039649951
  32     -0.039209274742
  33      0.129734324529
  34      0.000000000000
  35     -0.015973082021
  36      0.038095035425
  37      0.000000000000
  38      0.006426190109
  39      0.000000000000
  40      0.000000000000
  41      0.012427243290
  42      0.009704363884
 Ene=  -0.11161579601463E+01
 Spin= Alpha
 Occup=    0.000000
   1      0.000000000000
   2      0.000000000000
   3      0.000000000000
   4      0.000000000000
   5      0.000000000000
   6      0.000000000000
   7      0.000000000000
   8      0.000000000000
   9      0.000000000000
  10      0.000000000000
  11      0.000000000000
  12      0.000000000000
  13      0.000000000000
  14      0.000000000000
  15      0.000000000000
  16      0.000000000000
  17      0.000000000000
  18      0.000000000000
  19      0.000000000000
  20      0.000000000000
  21      0.000000000000
  22      0.000000000000
  23      0.000000000000
  24      0.000000000000
  25      0.000000000000
  26      0.000000000000
  27      0.000000000000
  28      0.000000000000
  29      0.000000000000
  30      0.000000000000
  31      0.000000000000
  32      0.000000000000
  33      0.000000000000
  34      0.000000000000
  35      0.000000000000
  36      0.000000000000
  37      0.000000000000
  38      0.000000000000
  39      0.000000000000
  40      0.000000000000
  41      0.000000000000
  42      0.000000000000
 Ene=  -0.75864467485703E+00
 Spin= Alpha
 Occup=    0.000000
   1      0.000000000000
   2      0.000000000000
   3      0.000000000000
   4      0.000000000000
   5      0.000000000000
   6      0.000000000000
   7      0.000000000000
   8      0.000000000000
   9      0.000000000000
  10      0.000000000000
  11      0.000000000000
  12      0.000000000000
  13      0.000000000000
  14      0.000000000000
  15      0.000000000000
  16      0.000000000000
  17      0.000000000000
  18      0.000000000000
  19      0.000000000000
  20      0.000000000000
  21      0.000000000000
  22      0.000000000000
  23      0.000000000000
  24      0.000000000000
  25      0.000000000000
  26      0.000000000000
  27      0.000000000000
  28      0.000000000000
  29      0.000000000000
  30      0.000000000000
  31      0.000000000000
  32      0.000000000000
  33      0.000000000000
  34      0.000000000000
  35      0.000000000000
  36      0.000000000000
  37      0.000000000000
  38      0.000000000000
  39      0.000000000000
  40      0.000000000000
  41      0.000000000000
  42      0.000000000000
 Ene=  -0.75864467485703E+00
 Spin= Alpha
 Occup=    1.000000
   1     -0.187724184458
   2      0.415503091014
   3      0.341453324364
   4     -0.117547612067
   5     -0.166298142041
   6     -0.000000000000
   7     -0.053148308277
   8     -0.075203162715
   9     -0.000000000000
  10      0.007496795915
  11     -0.000000000000
  12     -0.000000000000
  13      0.002991569019
  14     -0.008457845564
  15      0.166447294033
  16     -0.343136757112
  17     -0.304562048571
  18     -0.109253292578
  19     -0.049741645792
  20      0.000000000000
  21     -0.036731412699
  22     -0.027535455089
  23      0.000000000000
  24     -0.003716780975
  25     -0.000000000000
  26     -0.000000000000
  27      0.005467864618
  28      0.006474519334
  29      0.166438147343
  30     -0.343114704562
  31     -0.304525157242
  32     -0.010409414477
  33     -0.119546130080
  34      0.000000000000
  35     -0.013689256379
  36     -0.043803918370
  37      0.000000000000
  38     -0.003715006702
  39     -0.000000000000
  40     -0.000000000000
  41     -0.008320391791
  42      0.001590805519
 Ene=  -0.62574161782263E+00
 Spin= Alpha
 Occup=    1.000000
   1      0.000000000000
   2      0.000000000000
   3     -0.000000000000
   4     -0.000000000000
   5     -0.000000000000
   6     -0.550170993560
   7     -0.000000000000
   8     -0.000000000000
   9     -0.314611621622
  10     -0.000000000000
  11     -0.016218206256
  12     -0.022927338343
  13     -0.000000000000
  14     -0.000000000000
  15     -0.000000000000
  16      0.000000000000
  17      0.000000000000
  18      0.000000000000
  19     -0.000000000000
  20     -0.245369014560
  21     -0.000000000000
  22     -0.000000000000
  23     -0.130727552223
  24     -0.000000000000
  25      0.024674124192
  26     -0.002927981105
  27     -0.000000000000
  28      0.000000000000
  29     -0.000000000000
  30      0.000000000000
  31      0.000000000000
  32     -0.000000000000
  33      0.000000000000
  34     -0.245214226826
  35     -0.000000000000
  36     -0.000000000000
  37     -0.130647457214
  38     -0.000000000000
  39     -0.010991107952
  40      0.022267986671
  41     -0.000000000000
  42      0.000000000000
 Ene=  -0.62574161782263E+00
 Spin= Alpha
 Occup=   -0.000000
   1      0.000000000000
   2      0.000000000000
   3      0.000000000000
   4      0.000000000000
   5      0.000000000000
   6      0.000000000000
   7      0.000000000000
   8      0.000000000000
   9      0.000000000000
  10      0.000000000000
  11      0.000000000000
  12      0.000000000000
  13      0.000000000000
  14      0.000000000000
  15      0.000000000000
  16      0.000000000000
  17      0.000000000000
  18      0.000000000000
  19      0.000000000000
  20      0.000000000000
  21      0.000000000000
  22      0.000000000000
  23      0.000000000000
  24      0.000000000000
  25      0.000000000000
  26      0.000000000000
  27      0.000000000000
  28      0.000000000000
  29      0.000000000000
  30      0.000000000000
  31      0.000000000000
  32      0.000000000000
  33      0.000000000000
  34      0.000000000000
  35      0.000000000000
  36      0.000000000000
  37      0.000000000000
  38      0.000000000000
  39      0.000000000000
  40      0.000000000000
  41      0.000000000000
  42      0.000000000000
 Ene=  -0.60791479098322E+00
 Spin= Alpha
 Occup=    1.000000
   1      0.018572334390
   2     -0.027700889980
   3     -0.020181635424
   4      0.283894207462
   5      0.401719329809
   6     -0.000000000000
   7      0.165131806224
   8      0.233685236657
   9     -0.000000000000
  10     -0.011723457160
  11      0.000000000000
  12      0.000000000000
  13     -0.008988153646
  14      0.025400980428
  15      0.076804432386
  16     -0.150033072856
  17     -0.222464376378
  18     -0.170847779827
  19      0.218088019691
  20     -0.000000000000
  21     -0.054186370754
  22      0.111407344061
  23     -0.000000000000
  24     -0.006901844317
  25     -0.000000000000
  26      0.000000000000
  27      0.005585782225
  28     -0.019616564524
  29      0.076801004240
  30     -0.150031162972
  31     -0.222432304358
  32      0.262461624300
  33     -0.088229877965
  34     -0.000000000000
  35      0.123032476387
  36     -0.013885874094
  37     -0.000000000000
  38     -0.006899857229
  39      0.000000000000
  40      0.000000000000
  41      0.007999261095
  42     -0.018750292264
 Ene=  -0.60791479098322E+00
 Spin= Alpha
 Occup=   -0.000000
   1      0.000000000000
   2      0.000000000000
   3      0.000000000000
   4      0.000000000000
   5      0.000000000000
   6      0.000000000000
   7      0.000000000000
   8      0.000000000000
   9      0.000000000000
  10      0.000000000000
  11      0.000000000000
  12      0.000000000000
  13      0.000000000000
  14      0.000000000000
  15      0.000000000000
  16      0.000000000000
  17      0.000000000000
  18      0.000000000000
  19      0.000000000000
  20      0.000000000000
  21      0.000000000000
  22      0.000000000000
  23      0.000000000000
  24      0.000000000000
  25      0.000000000000
  26      0.000000000000
  27      0.000000000000
  28      0.000000000000
  29      0.000000000000
  30      0.000000000000
  31      0.000000000000
  32      0.000000000000
  33      0.000000000000
  34      0.000000000000
  35      0.000000000000
  36      0.000000000000
  37      0.000000000000
  38      0.000000000000
  39      0.000000000000
  40      0.000000000000
  41      0.000000000000
  42      0.000000000000
 Ene=  -0.59392292518971E+00
 Spin= Alpha
 Occup=    1.000000
   1     -0.000019170895
   2      0.000032093637
   3      0.000071361332
   4     -0.321544167287
   5      0.227236836102
   6      0.000000000000
   7     -0.154019217994
   8      0.108859377211
   9      0.000000000000
  10      0.000001248244
  11     -0.000000000000
  12      0.000000000000
  13     -0.014050742664
  14     -0.004970010572
  15     -0.119983834021
  16      0.239699651317
  17      0.302844364597
  18      0.319486685545
  19      0.047876033986
  20     -0.000000000000
  21      0.138914850952
  22      0.021437018376
  23     -0.000000000000
  24      0.010732185624
  25      0.000000000000
  26      0.000000000000
  27     -0.015947574470
  28     -0.004128544241
  29      0.120002837026
  30     -0.239746486894
  31     -0.302856260328
  32      0.061563972196
  33     -0.317055553035
  34      0.000000000000
  35      0.026189104972
  36     -0.138063529295
  37      0.000000000000
  38     -0.010731036727
  39      0.000000000000
  40     -0.000000000000
  41     -0.014985696851
  42     -0.006830811263
 Ene=  -0.59392292518971E+00
 Spin= Alpha
 Occup=    0.000000
   1      0.000000000000
   2      0.000000000000
   3      0.000000000000
   4      0.000000000000
   5      0.000000000000
   6      0.000000000000
   7      0.000000000000
   8      0.000000000000
   9      0.000000000000
  10      0.000000000000
  11      0.000000000000
  12      0.000000000000
  13      0.000000000000
  14      0.000000000000
  15      0.000000000000
  16      0.000000000000
  17      0.000000000000
  18      0.000000000000
  19      0.000000000000
  20      0.000000000000
  21      0.000000000000
  22      0.000000000000
  23      0.000000000000
  24      0.000000000000
  25      0.000000000000
  26      0.000000000000
  27      0.000000000000
  28      0.000000000000
  29      0.000000000000
  30      0.000000000000
  31      0.000000000000
  32      0.000000000000
  33      0.000000000000
  34      0.000000000000
  35      0.000000000000
  36      0.000000000000
  37      0.000000000000
  38      0.000000000000
  39      0.000000000000
  40      0.000000000000
  41      0.000000000000
  42      0.000000000000
 Ene=  -0.36873136927959E+00
 Spin= Alpha
 Occup=   -0.000000
   1      0.000000000000
   2      0.000000000000
   3      0.000000000000
   4      0.000000000000
   5      0.000000000000
   6      0.000000000000
   7      0.000000000000
   8      0.000000000000
   9      0.000000000000
  10      0.000000000000
  11      0.000000000000
  12      0.000000000000
  13      0.000000000000
  14      0.000000000000
  15      0.000000000000
  16      0.000000000000
  17      0.000000000000
  18      0.000000000000
  19      0.000000000000
  20      0.000000000000
  21      0.000000000000
  22      0.000000000000
  23      0.000000000000
  24      0.000000000000
  25      0.000000000000
  26      0.000000000000
  27      0.000000000000
  28      0.000000000000
  29      0.000000000000
  30      0.000000000000
  31      0.000000000000
  32      0.000000000000
  33      0.000000000000
  34      0.000000000000
  35      0.000000000000
  36      0.000000000000
  37      0.000000000000
  38      0.000000000000
  39      0.000000000000
  40      0.000000000000
  41      0.000000000000
  42      0.000000000000
 Ene=  -0.36873136927959E+00
 Spin= Alpha
 Occup=    1.000000
   1     -0.000000000000
   2      0.000000000000
   3      0.000000000000
   4     -0.000000000000
   5      0.000000000000
   6      0.000075596372
   7      0.000000000000
   8     -0.000000000000
   9      0.000071976009
  10     -0.000000000000
  11     -0.030653630509
  12      0.021665901337
  13      0.000000000000
  14      0.000000000000
  15      0.000000000000
  16      0.000000000000
  17     -0.000000000000
  18     -0.000000000000
  19     -0.000000000000
  20     -0.479319779718
  21      0.000000000000
  22      0.000000000000
  23     -0.340839175689
  24     -0.000000000000
  25      0.019217171693
  26     -0.001025618840
  27     -0.000000000000
  28     -0.000000000000
  29     -0.000000000000
  30     -0.000000000000
  31      0.000000000000
  32      0.000000000000
  33      0.000000000000
  34      0.479408000995
  35      0.000000000000
  36     -0.000000000000
  37      0.340899095206
  38      0.000000000000
  39      0.007384505736
  40     -0.017775955106
  41     -0.000000000000
  42     -0.000000000000
 Ene=  -0.35256005576513E+00
 Spin= Alpha
 Occup=    1.000000
   1     -0.000029011418
   2      0.000058648331
   3      0.000087635264
   4      0.032685033672
   5     -0.023298333313
   6      0.000000000000
   7     -0.043079364817
   8      0.030297314994
   9      0.000000000000
  10      0.000007933685
  11     -0.000000000000
  12      0.000000000000
  13      0.027009791867
  14      0.009577848079
  15     -0.005588083406
  16      0.021991350789
  17      0.022040228615
  18     -0.078788982703
  19      0.493139761172
  20     -0.000000000000
  21     -0.064792021263
  22      0.334911227822
  23     -0.000000000000
  24     -0.002428049196
  25     -0.000000000000
  26      0.000000000000
  27      0.003365731115
  28     -0.016749619478
  29      0.005586827863
  30     -0.022001973796
  31     -0.021976442724
  32     -0.491042219797
  33     -0.090073937957
  34      0.000000000000
  35     -0.337227111022
  36     -0.050554943883
  37      0.000000000000
  38      0.002433131005
  39     -0.000000000000
  40     -0.000000000000
  41     -0.007916750518
  42      0.015137978985
 Ene=  -0.35256005576513E+00
 Spin= Alpha
 Occup=   -0.000000
   1      0.000000000000
   2      0.000000000000
   3      0.000000000000
   4      0.000000000000
   5      0.000000000000
   6      0.000000000000
   7      0.000000000000
   8      0.000000000000
   9      0.000000000000
  10      0.000000000000
  11      0.000000000000
  12      0.000000000000
  13      0.000000000000
  14      0.000000000000
  15      0.000000000000
  16      0.000000000000
  17      0.000000000000
  18      0.000000000000
  19      0.000000000000
  20      0.000000000000
  21      0.000000000000
  22      0.000000000000
  23      0.000000000000
  24      0.000000000000
  25      0.000000000000
  26      0.000000000000
  27      0.000000000000
  28      0.000000000000
  29      0.000000000000
  30      0.000000000000
  31      0.000000000000
  32      0.000000000000
  33      0.000000000000
  34      0.000000000000
  35      0.000000000000
  36      0.000000000000
  37      0.000000000000
  38      0.000000000000
  39      0.000000000000
  40      0.000000000000
  41      0.000000000000
  42      0.000000000000
 Ene=  -0.33754983651770E+00
 Spin= Alpha
 Occup=    1.000000
   1      0.060520507206
   2     -0.112985261106
   3     -0.251026475191
   4      0.178285417957
   5      0.252281412110
   6      0.000000000000
   7      0.106458661483
   8      0.150717142247
   9      0.000000000000
  10     -0.014001256817
  11      0.000000000000
  12      0.000000000000
  13      0.009680597316
  14     -0.027316815081
  15     -0.011874610865
  16      0.046063198470
  17     -0.021506156021
  18     -0.214943899672
  19     -0.393751490871
  20     -0.000000000000
  21     -0.129083119843
  22     -0.298660245335
  23     -0.000000000000
  24     -0.003038379996
  25     -0.000000000000
  26     -0.000000000000
  27      0.009565546128
  28      0.007060448345
  29     -0.011860913309
  30      0.046023062264
  31     -0.021552222893
  32     -0.299708123598
  33     -0.334204053623
  34     -0.000000000000
  35     -0.238634414538
  36     -0.221466135341
  37     -0.000000000000
  38     -0.003039336325
  39     -0.000000000000
  40     -0.000000000000
  41     -0.011885198743
  42     -0.000526400002
 Ene=  -0.33754983651770E+00
 Spin= Alpha
 Occup=    0.000000
   1      0.000000000000
   2      0.000000000000
   3      0.000000000000
   4      0.000000000000
   5      0.000000000000
   6      0.000000000000
   7      0.000000000000
   8      0.000000000000
   9      0.000000000000
  10      0.000000000000
  11      0.000000000000
  12      0.000000000000
  13      0.000000000000
  14      0.000000000000
  15      0.000000000000
  16      0.000000000000
  17      0.000000000000
  18      0.000000000000
  19      0.000000000000
  20      0.000000000000
  21      0.000000000000
  22      0.000000000000
  23      0.000000000000
  24      0.000000000000
  25      0.000000000000
  26      0.000000000000
  27      0.000000000000
  28      0.000000000000
  29      0.000000000000
  30      0.000000000000
  31      0.000000000000
  32      0.000000000000
  33      0.000000000000
  34      0.000000000000
  35      0.000000000000
  36      0.000000000000
  37      0.000000000000
  38      0.000000000000
  39      0.000000000000
  40      0.000000000000
  41      0.000000000000
  42      0.000000000000
 Ene=  -0.17460306173202E+00
 Spin= Alpha
 Occup=    0.000000
   1      0.000000000000
   2      0.000000000000
   3      0.000000000000
   4      0.000000000000
   5      0.000000000000
   6      0.000000000000
   7      0.000000000000
   8      0.000000000000
   9      0.000000000000
  10      0.000000000000
  11      0.000000000000
  12      0.000000000000
  13      0.000000000000
  14      0.000000000000
  15      0.000000000000
  16      0.000000000000
  17      0.000000000000
  18      0.000000000000
  19      0.000000000000
  20      0.000000000000
  21      0.000000000000
  22      0.000000000000
  23      0.000000000000
  24      0.000000000000
  25      0.000000000000
  26      0.000000000000
  27      0.000000000000
  28      0.000000000000
  29      0.000000000000
  30      0.000000000000
  31      0.000000000000
  32      0.000000000000
  33      0.000000000000
  34      0.000000000000
  35      0.000000000000
  36      0.000000000000
  37      0.000000000000
  38      0.000000000000
  39      0.000000000000
  40      0.000000000000
  41      0.000000000000
  42      0.000000000000
 Ene=  -0.17460306173202E+00
 Spin= Alpha
 Occup=    0.000000
   1      0.000000000000
   2      0.000000000000
   3     -0.000000000000
   4      0.000000000000
   5      0.000000000000
   6     -0.486450544488