[Molden Format]
[Title]
generated by TRESC, real part2 of MOs of job O3
 
[Atoms] AU
 O   1   8   -4.5402454961    7.2177128343   -2.7178598716
 O   2   8   -2.2158043353    7.0339313734   -2.7178598716
 O   3   8   -5.4895719187    9.3477159757   -2.7178598716
[GTO]
  1 0
 s  5 1.0
     2256.4894524000        0.0059167515
      338.4991392200        0.0411156308
       76.9063833050        0.1812996088
       21.4088621130        0.4670469627
        6.6523625585        0.4440133421
 s  1 1.0
        0.8121693602        1.0000000000
 s  1 1.0
        0.2558870496        1.0000000000
 p  3 1.0
       17.7535366450        0.0431495830
        3.8671566736        0.2292558699
        1.0487786113        0.5099918107
 p  1 1.0
        0.2765100171        1.0000000000
 d  1 1.0
        1.2000000000        1.0000000000
 
  2 0
 s  5 1.0
     2256.4894524000        0.0059167515
      338.4991392200        0.0411156308
       76.9063833050        0.1812996088
       21.4088621130        0.4670469627
        6.6523625585        0.4440133421
 s  1 1.0
        0.8121693602        1.0000000000
 s  1 1.0
        0.2558870496        1.0000000000
 p  3 1.0
       17.7535366450        0.0431495830
        3.8671566736        0.2292558699
        1.0487786113        0.5099918107
 p  1 1.0
        0.2765100171        1.0000000000
 d  1 1.0
        1.2000000000        1.0000000000
 
  3 0
 s  5 1.0
     2256.4894524000        0.0059167515
      338.4991392200        0.0411156308
       76.9063833050        0.1812996088
       21.4088621130        0.4670469627
        6.6523625585        0.4440133421
 s  1 1.0
        0.8121693602        1.0000000000
 s  1 1.0
        0.2558870496        1.0000000000
 p  3 1.0
       17.7535366450        0.0431495830
        3.8671566736        0.2292558699
        1.0487786113        0.5099918107
 p  1 1.0
        0.2765100171        1.0000000000
 d  1 1.0
        1.2000000000        1.0000000000
 
[5D]
[7F]
[9G]
[MO]
 Ene=   0.92659232871476E+00
 Spin= Alpha
 Occup=    0.000000
   1     -0.000000000000
   2      0.000000000000
   3     -0.000000000000
   4      0.000000000000
   5     -0.000000000000
   6      0.000235335838
   7     -0.000000000000
   8      0.000000000000
   9     -0.000448079097
  10     -0.000000000000
  11     -0.006696914455
  12      0.004728853716
  13     -0.000000000000
  14     -0.000000000000
  15      0.000000000000
  16     -0.000000000000
  17      0.000000000000
  18      0.000000000000
  19     -0.000000000000
  20     -0.670383729985
  21     -0.000000000000
  22      0.000000000000
  23      0.803932764054
  24     -0.000000000000
  25      0.018854713886
  26     -0.012261005661
  27      0.000000000000
  28     -0.000000000000
  29     -0.000000000000
  30      0.000000000000
  31     -0.000000000000
  32      0.000000000000
  33     -0.000000000000
  34      0.670197148588
  35     -0.000000000000
  36      0.000000000000
  37     -0.803460382833
  38      0.000000000000
  39      0.017849301593
  40     -0.013664449058
  41      0.000000000000
  42      0.000000000000
 Ene=   0.92659232871476E+00
 Spin= Alpha
 Occup=    0.000000
   1      0.000000000000
   2      0.000000000000
   3      0.000000000000
   4      0.000000000000
   5      0.000000000000
   6      0.000000000000
   7      0.000000000000
   8      0.000000000000
   9      0.000000000000
  10      0.000000000000
  11      0.000000000000
  12      0.000000000000
  13      0.000000000000
  14      0.000000000000
  15      0.000000000000
  16      0.000000000000
  17      0.000000000000
  18      0.000000000000
  19      0.000000000000
  20      0.000000000000
  21      0.000000000000
  22      0.000000000000
  23      0.000000000000
  24      0.000000000000
  25      0.000000000000
  26      0.000000000000
  27      0.000000000000
  28      0.000000000000
  29      0.000000000000
  30      0.000000000000
  31      0.000000000000
  32      0.000000000000
  33      0.000000000000
  34      0.000000000000
  35      0.000000000000
  36      0.000000000000
  37      0.000000000000
  38      0.000000000000
  39      0.000000000000
  40      0.000000000000
  41      0.000000000000
  42      0.000000000000
 Ene=   0.96619155465789E+00
 Spin= Alpha
 Occup=    0.000000
   1     -0.000000000000
   2      0.000000000000
   3     -0.000000000000
   4     -0.000000000000
   5     -0.000000000000
   6      0.618996859182
   7     -0.000000000000
   8     -0.000000000000
   9     -1.238128841784
  10      0.000000000000
  11      0.016981464511
  12      0.024037755856
  13     -0.000000000000
  14      0.000000000000
  15      0.000000000000
  16     -0.000000000000
  17      0.000000000000
  18      0.000000000000
  19      0.000000000000
  20     -0.450057013288
  21     -0.000000000000
  22     -0.000000000000
  23      0.845749311720
  24     -0.000000000000
  25      0.022016277801
  26      0.011677022642
  27      0.000000000000
  28     -0.000000000000
  29      0.000000000000
  30     -0.000000000000
  31      0.000000000000
  32      0.000000000000
  33      0.000000000000
  34     -0.450455343533
  35      0.000000000000
  36     -0.000000000000
  37      0.846151902059
  38     -0.000000000000
  39      0.003639295101
  40      0.024670567651
  41     -0.000000000000
  42     -0.000000000000
 Ene=   0.96619155465789E+00
 Spin= Alpha
 Occup=    0.000000
   1      0.000000000000
   2      0.000000000000
   3      0.000000000000
   4      0.000000000000
   5      0.000000000000
   6      0.000000000000
   7      0.000000000000
   8      0.000000000000
   9      0.000000000000
  10      0.000000000000
  11      0.000000000000
  12      0.000000000000
  13      0.000000000000
  14      0.000000000000
  15      0.000000000000
  16      0.000000000000
  17      0.000000000000
  18      0.000000000000
  19      0.000000000000
  20      0.000000000000
  21      0.000000000000
  22      0.000000000000
  23      0.000000000000
  24      0.000000000000
  25      0.000000000000
  26      0.000000000000
  27      0.000000000000
  28      0.000000000000
  29      0.000000000000
  30      0.000000000000
  31      0.000000000000
  32      0.000000000000
  33      0.000000000000
  34      0.000000000000
  35      0.000000000000
  36      0.000000000000
  37      0.000000000000
  38      0.000000000000
  39      0.000000000000
  40      0.000000000000
  41      0.000000000000
  42      0.000000000000
 Ene=   0.98495355980456E+00
 Spin= Alpha
 Occup=    0.000000
   1      0.000000000000
   2      0.000000000000
   3      0.000000000000
   4      0.000000000000
   5      0.000000000000
   6      0.000000000000
   7      0.000000000000
   8      0.000000000000
   9      0.000000000000
  10      0.000000000000
  11      0.000000000000
  12      0.000000000000
  13      0.000000000000
  14      0.000000000000
  15      0.000000000000
  16      0.000000000000
  17      0.000000000000
  18      0.000000000000
  19      0.000000000000
  20      0.000000000000
  21      0.000000000000
  22      0.000000000000
  23      0.000000000000
  24      0.000000000000
  25      0.000000000000
  26      0.000000000000
  27      0.000000000000
  28      0.000000000000
  29      0.000000000000
  30      0.000000000000
  31      0.000000000000
  32      0.000000000000
  33      0.000000000000
  34      0.000000000000
  35      0.000000000000
  36      0.000000000000
  37      0.000000000000
  38      0.000000000000
  39      0.000000000000
  40      0.000000000000
  41      0.000000000000
  42      0.000000000000
 Ene=   0.98495355980456E+00
 Spin= Alpha
 Occup=    0.000000
   1     -0.010130682014
   2      0.198647300360
   3      0.208382790436
   4      0.315455638521
   5      0.446500731183
   6      0.000000000000
   7     -0.582132903642
   8     -0.823329211974
   9     -0.000000000000
  10     -0.105330581188
  11      0.000000000000
  12      0.000000000000
  13      0.018496394069
  14     -0.052300087703
  15     -0.049937427707
  16      0.339944553470
  17     -0.210764752208
  18     -0.343120298901
  19     -0.263585095371
  20     -0.000000000000
  21      0.509192859189
  22      0.560273797991
  23      0.000000000000
  24     -0.043286247582
  25      0.000000000000
  26      0.000000000000
  27      0.054868377954
  28      0.021874714279
  29     -0.049921595885
  30      0.339861648536
  31     -0.210941687314
  32     -0.134428065347
  33     -0.411936835420
  34     -0.000000000000
  35      0.358742854262
  36      0.667752716632
  37      0.000000000000
  38     -0.043289919926
  39     -0.000000000000
  40      0.000000000000
  41     -0.056462739634
  42     -0.017524375191
 Ene=   0.10586067209813E+01
 Spin= Alpha
 Occup=    0.000000
   1     -0.000027822625
   2      0.000201534036
   3     -0.001345943370
   4      0.456051522733
   5     -0.322479717259
   6      0.000000000000
   7     -1.777640863230
   8      1.256185749054
   9     -0.000000000000
  10      0.000044030844
  11     -0.000000000000
  12      0.000000000000
  13      0.078211236524
  14      0.027740432352
  15      0.014936788777
  16     -0.083226956079
  17      1.174314754572
  18     -0.071345088505
  19      0.424075843881
  20      0.000000000000
  21     -0.533213346443
  22     -0.816823789708
  23     -0.000000000000
  24     -0.038436932963
  25      0.000000000000
  26      0.000000000000
  27      0.053221087471
  28     -0.077826675870
  29     -0.014871423318
  30      0.082813315307
  31     -1.172909514882
  32     -0.423630526852
  33     -0.074022336097
  34     -0.000000000000
  35      0.592152037316
  36      0.774325975056
  37      0.000000000000
  38      0.038442778379
  39     -0.000000000000
  40     -0.000000000000
  41     -0.007594539973
  42      0.093979900821
 Ene=   0.10586067209813E+01
 Spin= Alpha
 Occup=    0.000000
   1      0.000000000000
   2      0.000000000000
   3      0.000000000000
   4      0.000000000000
   5      0.000000000000
   6      0.000000000000
   7      0.000000000000
   8      0.000000000000
   9      0.000000000000
  10      0.000000000000
  11      0.000000000000
  12      0.000000000000
  13      0.000000000000
  14      0.000000000000
  15      0.000000000000
  16      0.000000000000
  17      0.000000000000
  18      0.000000000000
  19      0.000000000000
  20      0.000000000000
  21      0.000000000000
  22      0.000000000000
  23      0.000000000000
  24      0.000000000000
  25      0.000000000000
  26      0.000000000000
  27      0.000000000000
  28      0.000000000000
  29      0.000000000000
  30      0.000000000000
  31      0.000000000000
  32      0.000000000000
  33      0.000000000000
  34      0.000000000000
  35      0.000000000000
  36      0.000000000000
  37      0.000000000000
  38      0.000000000000
  39      0.000000000000
  40      0.000000000000
  41      0.000000000000
  42      0.000000000000
 Ene=   0.11879196972878E+01
 Spin= Alpha
 Occup=    0.000000
   1      0.000000000000
   2      0.000000000000
   3      0.000000000000
   4      0.000000000000
   5      0.000000000000
   6      0.000000000000
   7      0.000000000000
   8      0.000000000000
   9      0.000000000000
  10      0.000000000000
  11      0.000000000000
  12      0.000000000000
  13      0.000000000000
  14      0.000000000000
  15      0.000000000000
  16      0.000000000000
  17      0.000000000000
  18      0.000000000000
  19      0.000000000000
  20      0.000000000000
  21      0.000000000000
  22      0.000000000000
  23      0.000000000000
  24      0.000000000000
  25      0.000000000000
  26      0.000000000000
  27      0.000000000000
  28      0.000000000000
  29      0.000000000000
  30      0.000000000000
  31      0.000000000000
  32      0.000000000000
  33      0.000000000000
  34      0.000000000000
  35      0.000000000000
  36      0.000000000000
  37      0.000000000000
  38      0.000000000000
  39      0.000000000000
  40      0.000000000000
  41      0.000000000000
  42      0.000000000000
 Ene=   0.11879196972878E+01
 Spin= Alpha
 Occup=    0.000000
   1     -0.224952254262
   2      1.720391591044
   3     -5.415592445603
   4      0.144264380250
   5      0.204610673032
   6     -0.000000000000
   7     -1.069561069233
   8     -1.515817434857
   9      0.000000000000
  10     -0.066578087678
  11     -0.000000000000
  12     -0.000000000000
  13      0.001533019202
  14     -0.004280630816
  15      0.092395210691
  16     -0.681564174521
  17      2.678588161365
  18      0.038529441708
  19      0.162745291119
  20      0.000000000000
  21     -1.435685916502
  22      0.187350621355
  23     -0.000000000000
  24     -0.069708868544
  25     -0.000000000000
  26     -0.000000000000
  27      0.038247848648
  28      0.020674865267
  29      0.092565874218
  30     -0.682753037275
  31      2.681108193029
  32      0.140268180736
  33      0.090768967448
  34      0.000000000000
  35      0.656458058655
  36     -1.292188935470
  37     -0.000000000000
  38     -0.069651705769
  39      0.000000000000
  40     -0.000000000000
  41     -0.042742999998
  42     -0.008004739708
 Ene=   0.12083295911860E+01
 Spin= Alpha
 Occup=    0.000000
   1      0.000000000000
   2      0.000000000000
   3      0.000000000000
   4      0.000000000000
   5      0.000000000000
   6      0.000000000000
   7      0.000000000000
   8      0.000000000000
   9      0.000000000000
  10      0.000000000000
  11      0.000000000000
  12      0.000000000000
  13      0.000000000000
  14      0.000000000000
  15      0.000000000000
  16      0.000000000000
  17      0.000000000000
  18      0.000000000000
  19      0.000000000000
  20      0.000000000000
  21      0.000000000000
  22      0.000000000000
  23      0.000000000000
  24      0.000000000000
  25      0.000000000000
  26      0.000000000000
  27      0.000000000000
  28      0.000000000000
  29      0.000000000000
  30      0.000000000000
  31      0.000000000000
  32      0.000000000000
  33      0.000000000000
  34      0.000000000000
  35      0.000000000000
  36      0.000000000000
  37      0.000000000000
  38      0.000000000000
  39      0.000000000000
  40      0.000000000000
  41      0.000000000000
  42      0.000000000000
 Ene=   0.12083295911860E+01
 Spin= Alpha
 Occup=    0.000000
   1     -0.000140412324
   2      0.001025457967
   3     -0.003809014149
   4      0.216139098023
   5     -0.152507025479
   6      0.000000000000
   7     -2.005847352060
   8      1.416001686707
   9     -0.000000000000
  10     -0.000034686696
  11     -0.000000000000
  12      0.000000000000
  13     -0.105115323769
  14     -0.037238065756
  15      0.158546595390
  16     -1.079525917029
  17      2.757088273641
  18      0.257269477630
  19     -0.226169170296
  20      0.000000000000
  21     -1.610444117277
  22      0.252266872407
  23     -0.000000000000
  24      0.049456003372
  25      0.000000000000
  26      0.000000000000
  27     -0.003837965287
  28      0.024324760730
  29     -0.158454955812
  30      1.078836726934
  31     -2.753383171296
  32      0.299247306583
  33     -0.167002379983
  34     -0.000000000000
  35     -0.774530556161
  36      1.432209833410
  37      0.000000000000
  38     -0.049555964038
  39     -0.000000000000
  40     -0.000000000000
  41      0.012233644479
  42     -0.021351407871
 Ene=   0.19609371842386E+01
 Spin= Alpha
 Occup=    0.000000
   1      0.000000000000
   2      0.000000000000
   3      0.000000000000
   4      0.000000000000
   5      0.000000000000
   6      0.000000000000
   7      0.000000000000
   8      0.000000000000
   9      0.000000000000
  10      0.000000000000
  11      0.000000000000
  12      0.000000000000
  13      0.000000000000
  14      0.000000000000
  15      0.000000000000
  16      0.000000000000
  17      0.000000000000
  18      0.000000000000
  19      0.000000000000
  20      0.000000000000
  21      0.000000000000
  22      0.000000000000
  23      0.000000000000
  24      0.000000000000
  25      0.000000000000
  26      0.000000000000
  27      0.000000000000
  28      0.000000000000
  29      0.000000000000
  30      0.000000000000
  31      0.000000000000
  32      0.000000000000
  33      0.000000000000
  34      0.000000000000
  35      0.000000000000
  36      0.000000000000
  37      0.000000000000
  38      0.000000000000
  39      0.000000000000
  40      0.000000000000
  41      0.000000000000
  42      0.000000000000
 Ene=   0.19609371842386E+01
 Spin= Alpha
 Occup=    0.000000
   1      0.000000000000
   2     -0.000000000000
   3      0.000000000000
   4     -0.000000000000
   5      0.000000000000
   6      0.000065005320
   7      0.000000000000
   8     -0.000000000000
   9     -0.000016985520
  10      0.000000000000
  11     -0.534397946800
  12      0.377598239658
  13     -0.000000000000
  14      0.000000000000
  15     -0.000000000000
  16      0.000000000000
  17     -0.000000000000
  18     -0.000000000000
  19      0.000000000000
  20      0.053566162586
  21      0.000000000000
  22      0.000000000000
  23      0.076676287028
  24     -0.000000000000
  25      0.432311912448
  26      0.026961566115
  27      0.000000000000
  28      0.000000000000
  29      0.000000000000
  30     -0.000000000000
  31      0.000000000000
  32     -0.000000000000
  33      0.000000000000
  34     -0.053481586759
  35      0.000000000000
  36     -0.000000000000
  37     -0.076708109786
  38      0.000000000000
  39      0.118876858054
  40     -0.416400871010
  41      0.000000000000
  42     -0.000000000000
 Ene=   0.20495545059583E+01
 Spin= Alpha
 Occup=    0.000000
   1      0.000000000000
   2      0.000000000000
   3      0.000000000000
   4      0.000000000000
   5      0.000000000000
   6      0.000000000000
   7      0.000000000000
   8      0.000000000000
   9      0.000000000000
  10      0.000000000000
  11      0.000000000000
  12      0.000000000000
  13      0.000000000000
  14      0.000000000000
  15      0.000000000000
  16      0.000000000000
  17      0.000000000000
  18      0.000000000000
  19      0.000000000000
  20      0.000000000000
  21      0.000000000000
  22      0.000000000000
  23      0.000000000000
  24      0.000000000000
  25      0.000000000000
  26      0.000000000000
  27      0.000000000000
  28      0.000000000000
  29      0.000000000000
  30      0.000000000000
  31      0.000000000000
  32      0.000000000000
  33      0.000000000000
  34      0.000000000000
  35      0.000000000000
  36      0.000000000000
  37      0.000000000000
  38      0.000000000000
  39      0.000000000000
  40      0.000000000000
  41      0.000000000000
  42      0.000000000000
 Ene=   0.20495545059583E+01
 Spin= Alpha
 Occup=    0.000000
   1     -0.025557463769
   2      0.216427153670
   3     -0.505236943926
   4     -0.024292574032
   5     -0.034332814692
   6     -0.000000000000
   7     -0.141001310459
   8     -0.199548096371
   9      0.000000000000
  10     -0.302542960577
  11      0.000000000000
  12      0.000000000000
  13     -0.208354930606
  14      0.588487177642
  15     -0.015894347632
  16      0.051243505121
  17      0.185881522160
  18     -0.091638167915
  19     -0.032139564067
  20     -0.000000000000
  21     -0.075419197141
  22     -0.021099800047
  23      0.000000000000
  24     -0.090678696776
  25     -0.000000000000
  26     -0.000000000000
  27     -0.137801880550
  28     -0.380651759059
  29     -0.015908875566
  30      0.051311788367
  31      0.185770264118
  32      0.000403593751
  33     -0.097124259110
  34     -0.000000000000
  35      0.005175098077
  36     -0.078103821973
  37      0.000000000000
  38     -0.090612144674
  39      0.000000000000
  40     -0.000000000000
  41      0.346593305262
  42     -0.208997921109
 Ene=   0.21379647505799E+01
 Spin= Alpha
 Occup=    0.000000
   1      0.000000000000
   2      0.000000000000
   3      0.000000000000
   4      0.000000000000
   5      0.000000000000
   6      0.000000000000
   7      0.000000000000
   8      0.000000000000
   9      0.000000000000
  10      0.000000000000
  11      0.000000000000
  12      0.000000000000
  13      0.000000000000
  14      0.000000000000
  15      0.000000000000
  16      0.000000000000
  17      0.000000000000
  18      0.000000000000
  19      0.000000000000
  20      0.000000000000
  21      0.000000000000
  22      0.000000000000
  23      0.000000000000
  24      0.000000000000
  25      0.000000000000
  26      0.000000000000
  27      0.000000000000
  28      0.000000000000
  29      0.000000000000
  30      0.000000000000
  31      0.000000000000
  32      0.000000000000
  33      0.000000000000
  34      0.000000000000
  35      0.000000000000
  36      0.000000000000
  37      0.000000000000
  38      0.000000000000
  39      0.000000000000
  40      0.000000000000
  41      0.000000000000
  42      0.000000000000
 Ene=   0.21379647505799E+01
 Spin= Alpha
 Occup=    0.000000
   1      0.000000000000
   2     -0.000000000000
   3      0.000000000000
   4     -0.000000000000
   5     -0.000000000000
   6     -0.076802570236
   7      0.000000000000
   8      0.000000000000
   9     -0.052155732601
  10      0.000000000000
  11      0.423626539780
  12      0.599586071145
  13     -0.000000000000
  14     -0.000000000000
  15     -0.000000000000
  16      0.000000000000
  17     -0.000000000000
  18     -0.000000000000
  19     -0.000000000000
  20     -0.037757314444
  21      0.000000000000
  22     -0.000000000000
  23     -0.020549090230
  24      0.000000000000
  25     -0.346089669546
  26      0.220162064039
  27      0.000000000000
  28      0.000000000000
  29     -0.000000000000
  30      0.000000000000
  31     -0.000000000000
  32     -0.000000000000
  33     -0.000000000000
  34     -0.037717083453
  35     -0.000000000000
  36      0.000000000000
  37     -0.020608388992
  38      0.000000000000
  39      0.322961353464
  40     -0.252874586021
  41     -0.000000000000
  42      0.000000000000
 Ene=   0.25016716415402E+01
 Spin= Alpha
 Occup=    0.000000
   1     -0.001585855121
   2      0.011156712148
   3     -0.023324586410
   4     -0.217443057948
   5      0.157505627565
   6     -0.000000000000
   7      0.741241160009
   8     -0.537816977728
   9     -0.000000000000
  10      0.007619785909
  11      0.000000000000
  12      0.000000000000
  13      0.423394441559
  14      0.153767953396
  15      0.036996817145
  16     -0.158117476533
  17     -0.364282708657
  18      0.184680992313
  19     -0.070431926236
  20     -0.000000000000
  21      0.134948825993
  22      0.143615893663
  23     -0.000000000000
  24      0.276826858829
  25     -0.000000000000
  26     -0.000000000000
  27      0.337839950176
  28     -0.399041763556
  29     -0.037848129952
  30      0.160584308618
  31      0.382072944967
  32      0.129601488798
  33     -0.156017976736
  34      0.000000000000
  35     -0.083435102855
  36     -0.180800312725
  37      0.000000000000
  38     -0.255966342477
  39      0.000000000000
  40     -0.000000000000
  41      0.012431494789
  42      0.518708748119
 Ene=   0.25016716415402E+01
 Spin= Alpha
 Occup=    0.000000
   1      0.000000000000
   2      0.000000000000
   3      0.000000000000
   4      0.000000000000
   5      0.000000000000
   6      0.000000000000
   7      0.000000000000
   8      0.000000000000
   9      0.000000000000
  10      0.000000000000
  11      0.000000000000
  12      0.000000000000
  13      0.000000000000
  14      0.000000000000
  15      0.000000000000
  16      0.000000000000
  17      0.000000000000
  18      0.000000000000
  19      0.000000000000
  20      0.000000000000
  21      0.000000000000
  22      0.000000000000
  23      0.000000000000
  24      0.000000000000
  25      0.000000000000
  26      0.000000000000
  27      0.000000000000
  28      0.000000000000
  29      0.000000000000
  30      0.000000000000
  31      0.000000000000
  32      0.000000000000
  33      0.000000000000
  34      0.000000000000
  35      0.000000000000
  36      0.000000000000
  37      0.000000000000
  38      0.000000000000
  39      0.000000000000
  40      0.000000000000
  41      0.000000000000
  42      0.000000000000
 Ene=   0.25079632639090E+01
 Spin= Alpha
 Occup=    0.000000
   1      0.000000000000
   2      0.000000000000
   3      0.000000000000
   4      0.000000000000
   5      0.000000000000
   6      0.000000000000
   7      0.000000000000
   8      0.000000000000
   9      0.000000000000
  10      0.000000000000
  11      0.000000000000
  12      0.000000000000
  13      0.000000000000
  14      0.000000000000
  15      0.000000000000
  16      0.000000000000
  17      0.000000000000
  18      0.000000000000
  19      0.000000000000
  20      0.000000000000
  21      0.000000000000
  22      0.000000000000
  23      0.000000000000
  24      0.000000000000
  25      0.000000000000
  26      0.000000000000
  27      0.000000000000
  28      0.000000000000
  29      0.000000000000
  30      0.000000000000
  31      0.000000000000
  32      0.000000000000
  33      0.000000000000
  34      0.000000000000
  35      0.000000000000
  36      0.000000000000
  37      0.000000000000
  38      0.000000000000
  39      0.000000000000
  40      0.000000000000
  41      0.000000000000
  42      0.000000000000
 Ene=   0.25079632639090E+01
 Spin= Alpha
 Occup=    0.000000
   1     -0.085527943777
   2      0.605968455818
   3     -1.283766775706
   4      0.101754260393
   5      0.135652167876
   6     -0.000000000000
   7     -0.374557927891
   8     -0.501033868728
   9     -0.000000000000
  10      0.403553928571
  11     -0.000000000000
  12     -0.000000000000
  13     -0.074096252374
  14      0.185088581776
  15     -0.023401014993
  16      0.068671186156
  17      0.499257070787
  18     -0.155581515734
  19     -0.008085576879
  20     -0.000000000000
  21     -0.214682643062
  22      0.122815938759
  23      0.000000000000
  24      0.572683480930
  25     -0.000000000000
  26     -0.000000000000
  27      0.050391573741
  28     -0.100661246604
  29     -0.022072145699
  30      0.063027978174
  31      0.485316265882
  32      0.039723134198
  33     -0.143869784166
  34     -0.000000000000
  35      0.190449133245
  36     -0.154711055326
  37      0.000000000000
  38      0.582836136972
  39     -0.000000000000
  40     -0.000000000000
  41      0.023695622378
  42     -0.128928681587
 Ene=   0.25533419774914E+01
 Spin= Alpha
 Occup=    0.000000
   1      0.000000000000
   2      0.000000000000
   3      0.000000000000
   4      0.000000000000
   5      0.000000000000
   6      0.000000000000
   7      0.000000000000
   8      0.000000000000
   9      0.000000000000
  10      0.000000000000
  11      0.000000000000
  12      0.000000000000
  13      0.000000000000
  14      0.000000000000
  15      0.000000000000
  16      0.000000000000
  17      0.000000000000
  18      0.000000000000
  19      0.000000000000
  20      0.000000000000
  21      0.000000000000
  22      0.000000000000
  23      0.000000000000
  24      0.000000000000
  25      0.000000000000
  26      0.000000000000
  27      0.000000000000
  28      0.000000000000
  29      0.000000000000
  30      0.000000000000
  31      0.000000000000
  32      0.000000000000
  33      0.000000000000
  34      0.000000000000
  35      0.000000000000
  36      0.000000000000
  37      0.000000000000
  38      0.000000000000
  39      0.000000000000
  40      0.000000000000
  41      0.000000000000
  42      0.000000000000
 Ene=   0.25533419774914E+01
 Spin= Alpha
 Occup=    0.000000
   1      0.000000000000
   2     -0.000000000000
   3      0.000000000000
   4     -0.000000000000
   5      0.000000000000
   6      0.000000174373
   7      0.000000000000
   8     -0.000000000000
   9      0.000178459765
  10     -0.000000000000
  11     -0.008563419800
  12      0.005846272690
  13      0.000000000000
  14      0.000000000000
  15      0.000000000000
  16     -0.000000000000
  17     -0.000000000000
  18      0.000000000000
  19     -0.000000000000
  20     -0.021765385917
  21      0.000000000000
  22      0.000000000000
  23      0.031577596290
  24     -0.000000000000
  25     -0.044009113976
  26      0.706590966811
  27      0.000000000000
  28     -0.000000000000
  29     -0.000000000000
  30      0.000000000000
  31      0.000000000000
  32      0.000000000000
  33      0.000000000000
  34      0.021851741030
  35     -0.000000000000
  36     -0.000000000000
  37     -0.031759493761
  38     -0.000000000000
  39     -0.679754698437
  40     -0.193256337409
  41     -0.000000000000
  42      0.000000000000
 Ene=   0.25725767682427E+01
 Spin= Alpha
 Occup=    0.000000
   1      0.000000000000
   2     -0.000000000000
   3      0.000000000000
   4     -0.000000000000
   5     -0.000000000000
   6     -0.003553417308
   7      0.000000000000
   8      0.000000000000
   9     -0.136719193521
  10     -0.000000000000
  11      0.064473395995
  12      0.091268082053
  13     -0.000000000000
  14     -0.000000000000
  15     -0.000000000000
  16      0.000000000000
  17     -0.000000000000
  18      0.000000000000
  19      0.000000000000
  20     -0.034410584829
  21      0.000000000000
  22     -0.000000000000
  23      0.074743116255
  24     -0.000000000000
  25     -0.280257283522
  26     -0.645544028373
  27     -0.000000000000
  28      0.000000000000
  29      0.000000000000
  30     -0.000000000000
  31     -0.000000000000
  32     -0.000000000000
  33      0.000000000000
  34     -0.034364992094
  35     -0.000000000000
  36      0.000000000000
  37      0.074665278965
  38     -0.000000000000
  39     -0.516379966326
  40     -0.480202763785
  41      0.000000000000
  42      0.000000000000
 Ene=   0.25725767682427E+01
 Spin= Alpha
 Occup=    0.000000
   1      0.000000000000
   2      0.000000000000
   3      0.000000000000
   4      0.000000000000
   5      0.000000000000
   6      0.000000000000