[Molden Format]
[Title]
generated by TRESC, imaginary part2 of MOs of job Ni0-C2H4
 
[Atoms] AU
Ni   1  28    1.8539796126    6.7825327278   -0.4903308426
 C   2   6    4.6704257640    4.7931727241    1.2726747479
 C   3   6    5.0465532453    4.7581863879   -1.3126919263
 H   4   1    5.6975577332    6.1191094603    2.4870942128
 H   5   1    3.7846974132    3.1964352679    2.2493349313
 H   6   1    4.4712691419    3.1312517299   -2.4574086438
 H   7   1    6.3839198639    6.0535352724   -2.2192553710
[GTO]
  1 0
 s  6 1.0
    71074.8032110000        0.0049184150
    10672.0209410000        0.0200173975
     2428.1389007000        0.0784715325
      685.5359514800        0.2482002663
      223.1007286300        0.4665280195
       76.8420140400        0.3374151926
 s  1 1.0
      148.7112201600        1.0000000000
 s  1 1.0
       17.4591549900        1.0000000000
 s  1 1.0
        7.1625280700        1.0000000000
 s  1 1.0
       12.5561371300        1.0000000000
 s  1 1.0
        2.0735740500        1.0000000000
 s  1 1.0
        0.8538264100        1.0000000000
 s  1 1.0
        0.1053676600        1.0000000000
 s  1 1.0
        0.0381340900        1.0000000000
 p  5 1.0
      916.7360866200        0.0107030171
      216.0613991300        0.0711467350
       68.3839148200        0.2646675976
       24.5938439500        0.5093159720
        9.1392960200        0.3283291628
 p  1 1.0
        4.7193371700        1.0000000000
 p  1 1.0
        1.8161849200        1.0000000000
 p  1 1.0
        0.6784075100        1.0000000000
 d  4 1.0
       47.0938321100        0.0346401353
       13.1464639700        0.1833736831
        4.4170548900        0.4455621030
        1.4771565100        0.5627236040
 d  1 1.0
        0.4373592200        1.0000000000
 p  1 1.0
        0.1465880000        1.0000000000
 f  1 1.0
        2.1740000000        1.0000000000
 
  2 0
 s  5 1.0
     1238.4016938000        0.0059599745
      186.2900499200        0.0422621111
       42.2511763500        0.1866575214
       11.6765579300        0.4675815865
        3.5930506500        0.4422897287
 s  1 1.0
        0.4024514700        1.0000000000
 s  1 1.0
        0.1309018300        1.0000000000
 p  3 1.0
        9.4680970600        0.0570294585
        2.0103545100        0.3130471495
        0.5477100500        0.7605135301
 p  1 1.0
        0.1526861400        1.0000000000
 d  1 1.0
        0.8000000000        1.0000000000
 
  3 0
 s  5 1.0
     1238.4016938000        0.0059599745
      186.2900499200        0.0422621111
       42.2511763500        0.1866575214
       11.6765579300        0.4675815865
        3.5930506500        0.4422897287
 s  1 1.0
        0.4024514700        1.0000000000
 s  1 1.0
        0.1309018300        1.0000000000
 p  3 1.0
        9.4680970600        0.0570294585
        2.0103545100        0.3130471495
        0.5477100500        0.7605135301
 p  1 1.0
        0.1526861400        1.0000000000
 d  1 1.0
        0.8000000000        1.0000000000
 
  4 0
 s  3 1.0
       13.0107010000        0.0391282527
        1.9622572000        0.2855840539
        0.4445379600        0.7689908602
 s  1 1.0
        0.1219496200        1.0000000000
 p  1 1.0
        0.8000000000        1.0000000000
 
  5 0
 s  3 1.0
       13.0107010000        0.0391282527
        1.9622572000        0.2855840539
        0.4445379600        0.7689908602
 s  1 1.0
        0.1219496200        1.0000000000
 p  1 1.0
        0.8000000000        1.0000000000
 
  6 0
 s  3 1.0
       13.0107010000        0.0391282527
        1.9622572000        0.2855840539
        0.4445379600        0.7689908602
 s  1 1.0
        0.1219496200        1.0000000000
 p  1 1.0
        0.8000000000        1.0000000000
 
  7 0
 s  3 1.0
       13.0107010000        0.0391282527
        1.9622572000        0.2855840539
        0.4445379600        0.7689908602
 s  1 1.0
        0.1219496200        1.0000000000
 p  1 1.0
        0.8000000000        1.0000000000
 
[5D]
[7F]
[9G]
[MO]
 Ene=   0.87838575667354E+00
 Spin= Alpha
 Occup=    0.000000
   1     -0.000007649868
   2     -0.000003850678
   3      0.000014841482
   4     -0.000004116596
   5      0.000033858438
   6     -0.000040539187
   7     -0.000202908188
   8      0.002266431151
   9     -0.000134012303
  10      0.000006609144
  11     -0.000007040742
  12      0.000002029507
  13     -0.000008288704
  14      0.000008522043
  15     -0.000003119241
  16     -0.000006252900
  17      0.000011024884
  18      0.000000332483
  19     -0.000046193184
  20      0.000019506538
  21     -0.000017935100
  22     -0.000711592914
  23      0.000147571173
  24     -0.000022851789
  25     -0.000417550020
  26      0.000108121316
  27      0.001865735210
  28     -0.000197432248
  29     -0.000097272990
  30      0.001205736520
  31     -0.000683956832
  32      0.001374532153
  33     -0.000847125275
  34      0.000393059272
  35     -0.000000624727
  36     -0.000002868813
  37      0.000001056058
  38      0.000000481613
  39     -0.000000687994
  40     -0.000000743842
  41     -0.000002216408
  42     -0.000120063663
  43      0.001468623462
  44     -0.004774985447
  45     -0.000108649745
  46      0.000173519572
  47      0.000023518940
  48      0.000612480167
  49     -0.000870944937
  50     -0.000000371522
  51     -0.000074814647
  52      0.000022397864
  53      0.000013801685
  54     -0.000166762759
  55     -0.000068999571
  56     -0.000089506710
  57      0.001055700311
  58     -0.002030614784
  59     -0.000072119250
  60      0.000145666454
  61     -0.000082783382
  62      0.000322061854
  63     -0.000700726642
  64      0.001013051584
  65     -0.000064639134
  66     -0.000021236615
  67     -0.000048332917
  68     -0.000153037283
  69     -0.000082728766
  70      0.000635288512
  71      0.000952462350
  72     -0.000019739843
  73      0.000040685171
  74     -0.000012793310
  75      0.000437125678
  76      0.000576378474
  77      0.000108776523
  78     -0.000174435659
  79     -0.000108552430
  80      0.000288314023
  81      0.000419860814
  82      0.000071184687
  83     -0.000161910482
  84      0.000130675020
  85      0.000467944943
  86      0.000762365102
  87     -0.000037405364
  88      0.000042470321
  89     -0.000000049547
 Ene=   0.10457839624992E+01
 Spin= Alpha
 Occup=    0.000000
   1      0.000056846860
   2      0.000032127064
   3     -0.000443501022
   4     -0.000662583288
   5      0.000491309861
   6      0.001511576222
   7     -0.000907670941
   8     -0.000191988797
   9     -0.000876443858
  10      0.002465294305
  11      0.004540896459
  12      0.000309974708
  13     -0.002381693626
  14     -0.003898779415
  15     -0.000285026390
  16     -0.007717554613
  17     -0.015136555633
  18     -0.000974574147
  19      0.008249895132
  20      0.015890143325
  21      0.000992660926
  22      0.002695342492
  23      0.021283711651
  24      0.011848326096
  25      0.150252210478
  26      0.060709860318
  27     -0.003808552115
  28     -0.029692716246
  29     -0.016361343718
  30     -0.210477581128
  31     -0.083062289513
  32      0.007005767539
  33      0.012990084966
  34      0.001025159847
  35     -0.000008684618
  36     -0.000029610844
  37     -0.000058518343
  38     -0.000025039685
  39      0.000013022496
  40     -0.000149811650
  41      0.000031860479
  42     -0.000311345656
  43      0.000949213248
  44      0.000720577475
  45     -0.000228099490
  46      0.003468479186
  47      0.000077612294
  48      0.021771520031
  49      0.032181741308
  50      0.003039143457
  51     -0.000554155170
  52      0.002127726310
  53     -0.006833613821
  54      0.098797201768
  55      0.044366126858
  56     -0.000151454071
  57     -0.000343146244
  58      0.003070239522
  59      0.001233176478
  60      0.005715846547
  61      0.000276251074
  62      0.024416054483
  63      0.035646358131
  64      0.002579604548
  65      0.004577337374
  66      0.024626698833
  67      0.022028807574
  68      0.094847482955
  69      0.040317957390
  70     -0.018289194333
  71     -0.019631295728
  72      0.074347394682
  73     -0.040316038182
  74     -0.015026726077
  75      0.016605854009
  76      0.019598661324
  77     -0.068812310842
  78      0.050558378154
  79      0.016232661412
  80      0.019080258265
  81      0.020432949349
  82     -0.061178100843
  83      0.051246732455
  84     -0.035186503204
  85     -0.020771088115
  86     -0.021250480830
  87      0.067043142784
  88     -0.038779410532
  89      0.036218538960
 Ene=   0.10581105577078E+01
 Spin= Alpha
 Occup=    0.000000
   1      0.000011838648
   2      0.000006803433
   3     -0.000103056084
   4     -0.000160184526
   5      0.000126159706
   6      0.000353336929
   7     -0.000265631453
   8      0.000447776209
   9     -0.000216395202
  10     -0.000089626644
  11      0.000056481183
  12      0.000018693686
  13      0.000056446472
  14     -0.000023769430
  15     -0.000139669641
  16      0.000393378319
  17     -0.000251537927
  18     -0.000048006722
  19     -0.000511909540
  20      0.000286717732
  21      0.000514591416
  22     -0.000098117750
  23      0.000107427697
  24     -0.000228904792
  25      0.000240653929
  26     -0.000541658157
  27     -0.000050749633
  28     -0.000604426185
  29      0.001281175617
  30     -0.000360784119
  31      0.000785694884
  32      0.000321034815
  33     -0.000106249651
  34     -0.001276138287
  35     -0.000003316478
  36      0.000002178025
  37     -0.000002979621
  38     -0.000005792056
  39     -0.000005565545
  40      0.000001462080
  41      0.000002657097
  42     -0.000026392063
  43     -0.000596170319
  44      0.005904761815
  45     -0.000199378296
  46      0.000427064377
  47     -0.000180467826
  48     -0.001514866266
  49     -0.002137444411
  50     -0.001648149778
  51      0.000015802417
  52     -0.000346688774
  53      0.000373801243
  54      0.000102261146
  55      0.000188962245
  56     -0.000073885314
  57      0.000961188944
  58     -0.005971989493
  59     -0.000548663178
  60      0.000075413646
  61     -0.000102616245
  62      0.002600607678
  63      0.001688075231
  64     -0.001386064484
  65      0.000138452878
  66      0.000330244684
  67     -0.000118966189
  68     -0.000284973475
  69      0.000203394378
  70      0.000114227033
  71      0.000438984671
  72     -0.000142856917
  73     -0.000035277273
  74      0.000019018440
  75     -0.001167498116
  76     -0.001185941981
  77     -0.000426299963
  78      0.000206725547
  79     -0.000210953874
  80      0.000961282290
  81      0.001181405222
  82      0.000096498734
  83      0.000043500384
  84     -0.000050268452
  85     -0.000322726256
  86     -0.000452134506
  87     -0.000257074986
  88      0.000269912140
  89      0.000091939216
 Ene=   0.10885354014194E+01
 Spin= Alpha
 Occup=    0.000000
   1     -0.003537128145
   2     -0.002120201593
   3      0.039091128627
   4      0.065055974317
   5     -0.056196852135
   6     -0.134837824627
   7      0.135638702142
   8     -0.472428024825
   9      0.089205517076
  10      0.037582005161
  11     -0.025688400369
  12      0.005903899314
  13     -0.022577032557
  14      0.016222620102
  15     -0.003587067182
  16     -0.172265383940
  17      0.117033556068
  18     -0.027081967594
  19      0.236604524083
  20     -0.162594438669
  21      0.037354389758
  22      0.170888764051
  23     -0.060867570879
  24      0.031617886382
  25     -0.083019916080
  26      0.191895013751
  27     -0.216546763305
  28      0.076167111455
  29     -0.037999217194
  30      0.097840917516
  31     -0.226926359343
  32     -0.284123814781
  33      0.190935336772
  34     -0.043924710279
  35     -0.000273997188
  36     -0.000720813872
  37      0.000493058691
  38      0.000142570042
  39     -0.000312888352
  40     -0.000198162602
  41     -0.001071796057
  42      0.027450253049
  43     -0.194995413028
  44      0.350352066910
  45      0.150418449304
  46     -0.102106178273
  47      0.051511787647
  48     -0.216574168818
  49      0.149116316910
  50     -0.078728342306
  51      0.028102321238
  52      0.177701705515
  53     -0.125923723221
  54      0.011732137386
  55     -0.072453398285
  56      0.026778312668
  57     -0.192369395747
  58      0.359652885512
  59      0.158380633890
  60     -0.103951965005
  61     -0.004819351482
  62     -0.231702937852
  63      0.149001453145
  64      0.010304017513
  65     -0.062300804540
  66     -0.155692695560
  67      0.099327203664
  68      0.057872868942
  69     -0.109860107195
  70     -0.000735995179
  71     -0.045090702898
  72      0.067834359510
  73     -0.060461564945
  74      0.039399832133
  75     -0.000178460699
  76     -0.044391402186
  77      0.083679134034
  78     -0.044342640673
  79      0.039423295176
  80     -0.004073024298
  81     -0.045910910673
  82      0.091018950898
  83     -0.047845083164
  84     -0.013721650921
  85     -0.002233308447
  86     -0.045383940303
  87      0.076260249135
  88     -0.059315700494
  89     -0.017473681171
 Ene=   0.11038692147506E+01
 Spin= Alpha
 Occup=    0.000000
   1      0.000000053060
   2      0.000000025969
   3     -0.000000030394
   4      0.000000179427
   5     -0.000000398370
   6      0.000000031787
   7      0.000002025253
   8     -0.000031084747
   9      0.000003670963
  10      0.000008274628
  11      0.000071854530
  12      0.000255277359
  13     -0.000002148951
  14     -0.000146522835
  15     -0.000613500727
  16     -0.000033358665
  17     -0.000242177009
  18     -0.000828275519
  19      0.000034385728
  20      0.000584937483
  21      0.002295420508
  22     -0.000084050311
  23     -0.000290481737
  24      0.000494062771
  25      0.000235578668
  26      0.000005199728
  27      0.000349995968
  28      0.001203843374
  29     -0.001681819604
  30     -0.000282084419
  31      0.000222736559
  32     -0.000162792401
  33     -0.000147257875
  34      0.000240900078
  35      0.000000118391
  36      0.000000000371
  37      0.000000333916
  38      0.000004378846
  39      0.000005150926
  40     -0.000003198631
  41     -0.000000400816
  42     -0.000093033470
  43      0.001754589564
  44     -0.011862409436
  45     -0.000117230624
  46     -0.000056628758
  47      0.000059766081
  48      0.001011119167
  49      0.001433312550
  50      0.003423387210
  51     -0.000071717272
  52      0.000137153362
  53     -0.000202389586
  54      0.000190185024
  55      0.000060950248
  56      0.000094933162
  57     -0.001781740180
  58      0.011928887348
  59      0.000185427894
  60      0.000196940561
  61      0.000101026584
  62     -0.002056224068
  63     -0.001474065098
  64      0.003012949411
  65      0.000145659966
  66      0.000151333347
  67     -0.000082307674
  68      0.000321224840
  69      0.000219986809
  70      0.000234421721
  71      0.000468225283
  72      0.000380995454
  73     -0.000173639142
  74      0.000054650152
  75      0.001225251045
  76      0.001558946843
  77      0.000115810011
  78     -0.000000767974
  79      0.000271518783
  80     -0.001183740257
  81     -0.001729775631
  82     -0.000685870545
  83      0.000318491921
  84      0.000069241454
  85     -0.000292066911
  86     -0.000317266202
  87      0.000087101140
  88     -0.000183876378
  89      0.000091091529
 Ene=   0.11721723899586E+01
 Spin= Alpha
 Occup=    0.000000
   1      0.002145984553
   2      0.001165509031
   3     -0.012205459681
   4     -0.015492173560
   5      0.008392662159
   6      0.040037060675
   7     -0.000932067508
   8     -0.272758946291
   9      0.019551620056
  10     -0.010670632134
  11      0.006858733155
  12     -0.001617412355
  13      0.006890314850
  14     -0.004249285959
  15      0.001028865320
  16      0.047738644950
  17     -0.030883670830
  18      0.007259535870
  19     -0.061640138587
  20      0.039436081356
  21     -0.009320743465
  22      0.418220919114
  23     -0.089101387943
  24     -0.022139358555
  25      0.106630126541
  26     -0.234694054732
  27     -0.616096058547
  28      0.128522452721
  29      0.037270432652
  30     -0.171406063109
  31      0.377026588760
  32     -0.144098976190
  33      0.096244785417
  34     -0.023030247239
  35      0.000339154944
  36      0.000863997758
  37     -0.000599043778
  38     -0.000189752915
  39      0.000201267163
  40      0.000074943691
  41      0.000248796082
  42      0.015538188320
  43     -0.202603423106
  44      0.527608274582
  45     -0.004036416706
  46      0.002713411700
  47     -0.009283898635
  48     -0.076590316051
  49      0.044074400051
  50      0.070340277403
  51      0.048086460859
  52     -0.017516597670
  53      0.008211725829
  54     -0.017009263350
  55      0.039414532600
  56      0.015482348281
  57     -0.201524217825
  58      0.513749501607
  59     -0.007096744012
  60      0.003610555100
  61      0.007441271455
  62     -0.050421734790
  63      0.042791642740
  64     -0.097180173589
  65      0.048314042779
  66     -0.013610001534
  67      0.005287293515
  68     -0.017568481743
  69      0.040024161745
  70     -0.067437185103
  71     -0.126356145114
  72     -0.057661527370
  73      0.000230190719
  74      0.025316524319
  75     -0.068115585195
  76     -0.126233270120
  77     -0.022679025318
  78      0.048195559043
  79      0.030016634992
  80     -0.067260755987
  81     -0.125406884068
  82     -0.012942930920
  83      0.047379696666
  84     -0.036223032641
  85     -0.067826025244
  86     -0.126549330556
  87     -0.047668297275
  88     -0.001021318480
  89     -0.040629185106
 Ene=   0.12345265246973E+01
 Spin= Alpha
 Occup=    0.000000
   1      0.000005050393
   2      0.000002747404
   3     -0.000029120666
   4     -0.000037269893
   5      0.000020606070
   6      0.000095743347
   7     -0.000004698765
   8     -0.000661849521
   9      0.000050448552
  10     -0.000019925285
  11      0.000027667188
  12     -0.000002657871
  13      0.000011556877
  14     -0.000016639603
  15      0.000005006090
  16      0.000095417107
  17     -0.000121646563
  18      0.000012197989
  19     -0.000128652759
  20      0.000151931989
  21     -0.000030428501
  22      0.001111094456
  23     -0.000322096888
  24     -0.000124128963
  25      0.000258487626
  26     -0.000623414018
  27     -0.001497061848
  28      0.000474730976
  29      0.000165203673
  30     -0.000319316580
  31      0.000962411666
  32     -0.000324761547
  33      0.000268024876
  34      0.000009456043
  35      0.000001029461
  36      0.000002095773
  37     -0.000001554554
  38     -0.000000303279
  39      0.000000770827
  40     -0.000000812642
  41      0.000000455452
  42      0.000037902923
  43     -0.000459650073
  44      0.000909729406
  45     -0.000008130551
  46     -0.000012624493
  47      0.000000775811
  48      0.000063215805
  49      0.000456462625
  50      0.000246130512
  51      0.000130267474
  52     -0.000023329539
  53     -0.000061156997
  54      0.000209492513
  55      0.000225528326
  56      0.000040583784
  57     -0.000558148229
  58      0.001579514924
  59      0.000034831805
  60      0.000055162918
  61      0.000017137236
  62     -0.000485191954
  63     -0.000374688790
  64     -0.000164980189
  65      0.000116747231
  66     -0.000115756933
  67     -0.000028643052
  68     -0.000134244811
  69      0.000078958419
  70     -0.000234565582
  71     -0.000401611760
  72      0.000202567064
  73     -0.000217530742
  74     -0.000016146949
  75     -0.000049659225
  76     -0.000127565774
  77     -0.000380414522
  78      0.000355979014
  79      0.000189028320
  80     -0.000329369492
  81     -0.000518009810
  82      0.000054097712
  83     -0.000000516357
  84      0.000061146586
  85     -0.000070474187
  86     -0.000117058999
  87     -0.000293701611
  88      0.000045052049
  89     -0.000269431280
 Ene=   0.12348080837969E+01
 Spin= Alpha
 Occup=    0.000000
   1     -0.000005003359
   2     -0.000002863213
   3      0.000042230794
   4      0.000064616808
   5     -0.000050155144
   6     -0.000141519177
   7      0.000073009465
   8      0.000566435081
   9     -0.000037473265
  10      0.000127657426
  11      0.000088643659
  12     -0.000046296146
  13     -0.000078996546
  14     -0.000065252781
  15      0.000035195175
  16     -0.000583543046
  17     -0.000372672603
  18      0.000207083958
  19      0.000794839177
  20      0.000503094551
  21     -0.000314325555
  22      0.004606114823
  23      0.021759400192
  24      0.033763961319
  25     -0.004649195139
  26     -0.004415215353
  27     -0.005812969034
  28     -0.027425251754
  29     -0.043179835166
  30      0.006077228672
  31      0.005563146592
  32      0.000233499707
  33     -0.000220032081
  34      0.000526056771
  35     -0.000008462726
  36     -0.000070556054
  37     -0.000035978633
  38     -0.000297110177
  39     -0.000123037767
  40      0.000057025840
  41      0.000014215186
  42      0.000210168924
  43     -0.000914958454
  44     -0.002409713577
  45      0.013909517482
  46      0.020787461871
  47      0.001156840696
  48     -0.166605054398
  49     -0.255746008385
  50     -0.018868700644
  51      0.003630687292
  52      0.011053882258
  53      0.029346004210
  54     -0.096014420431
  55     -0.044463567594
  56     -0.000062630703
  57      0.000556047443
  58      0.001484328706
  59     -0.012270177159
  60     -0.019104993202
  61     -0.001271732637
  62      0.166148092298
  63      0.255017309881
  64      0.021665272780
  65      0.006675480631
  66      0.036590525377
  67      0.045014537965
  68      0.087560909755
  69      0.033579891604
  70      0.067131708121
  71      0.099996725582
  72     -0.146051458536
  73      0.064945022505
  74      0.058228912692
  75     -0.066224763046
  76     -0.100092969785
  77      0.122155571160
  78     -0.099866696875
  79     -0.063139502173
  80      0.066574041522
  81      0.100685269132
  82     -0.100249962066
  83      0.099727630461
  84     -0.094982956275
  85     -0.066348666020
  86     -0.100472562526
  87      0.124877851487
  88     -0.063320484333
  89      0.097896337563
 Ene=   0.12436336861151E+01
 Spin= Alpha
 Occup=    0.000000
   1      0.000000211869
   2      0.000000123713
   3     -0.000002032342
   4     -0.000003307177
   5      0.000002676577
   6      0.000007562946
   7     -0.000006765186
   8      0.000019317481
   9     -0.000005561473
  10      0.000050471116
  11      0.000086584550
  12      0.000042518116
  13     -0.000035159387
  14     -0.000094749090
  15     -0.000179351669
  16     -0.000206513097
  17     -0.000344310715
  18     -0.000131996063
  19      0.000255096893
  20      0.000553139809
  21      0.000720091822
  22     -0.001222038459
  23     -0.005893738939
  24     -0.010444423823
  25      0.000626939114
  26      0.001257171809
  27      0.002039676716
  28      0.009990367318
  29      0.019102670131
  30     -0.000951098926
  31     -0.002288080384
  32      0.000257719535
  33     -0.000032323760
  34     -0.001703284077
  35     -0.000009935884
  36     -0.000026023987
  37     -0.000017634027
  38     -0.000127010284
  39     -0.000060545832
  40      0.000019959485
  41      0.000009621044
  42      0.000020968452
  43     -0.001089236460
  44      0.008209207556
  45      0.002575988242
  46      0.003839934412
  47      0.000110053448
  48     -0.026830230981
  49     -0.040119236158
  50     -0.005289179238
  51      0.000483789495
  52      0.001652004816
  53      0.003236942660
  54     -0.003350797129
  55     -0.001682275035
  56     -0.000020135069
  57      0.001089524128
  58     -0.008161132184
  59     -0.002329703883
  60     -0.003566651863
  61     -0.000483582989
  62      0.027030161945
  63      0.039496719580
  64      0.001389126512
  65      0.000449208461
  66      0.002651199829
  67      0.003822593012
  68      0.003165024306
  69      0.000952542144
  70      0.009684204989
  71      0.014660207398
  72     -0.006846756151
  73     -0.001529336021
  74      0.006419640622
  75     -0.010933233016
  76     -0.015872484217
  77      0.001435957360
  78     -0.005839783244
  79     -0.007338812691
  80      0.010849476167
  81      0.015494333786
  82     -0.000302070607
  83      0.006016977624
  84     -0.007578391394
  85     -0.009618534901
  86     -0.014335033550
  87      0.005507538787
  88      0.000937552919
  89      0.008052957822
 Ene=   0.12788233212567E+01
 Spin= Alpha
 Occup=    0.000000
   1     -0.000011175181
   2     -0.000006522743
   3      0.000106662995
   4      0.000171936710
   5     -0.000139702174
   6     -0.000381891085
   7      0.000293908982
   8      0.000298511843
   9      0.000044066490
  10     -0.000081616644
  11     -0.000252237959
  12      0.000098930043
  13      0.000060812272
  14      0.000171425977
  15     -0.000078866185
  16      0.000325161614
  17      0.001103323515
  18     -0.000386621980
  19     -0.000418944869
  20     -0.001509854405
  21      0.000458923817
  22      0.052298745085
  23      0.242766443794
  24      0.379482411449
  25     -0.040418625580
  26     -0.050455456289
  27     -0.082966971029
  28     -0.384380204532
  29     -0.602486016594
  30      0.064150360908
  31      0.080381076441
  32      0.000164684459
  33      0.000287617432
  34      0.001408098121
  35      0.000124305328
  36      0.000699223485
  37      0.000399876894
  38      0.003176780614
  39      0.001355578939
  40     -0.000599903185
  41     -0.000196209672
  42      0.000117815585
  43      0.000751369248
  44     -0.011186851181
  45     -0.049535421555
  46     -0.076011272188
  47     -0.006392585340
  48      0.490171358381
  49      0.747431224017
  50      0.062579168906
  51     -0.008087107585
  52     -0.036697179448
  53     -0.055753804395
  54     -0.011539584460
  55     -0.000611819804
  56      0.000025117825
  57     -0.001126908718
  58      0.008602306640
  59      0.049864120112
  60      0.075885576448
  61      0.006402894772
  62     -0.490220064660
  63     -0.746940270339
  64     -0.058621469363
  65     -0.007261985485
  66     -0.032009710068
  67     -0.052039156710
  68      0.021841749454
  69      0.013976735824
  70     -0.182413275242
  71     -0.276006058145
  72      0.027300688150
  73      0.132228757020
  74     -0.125412122556
  75      0.185333424244
  76      0.278795694141
  77      0.100742871566
  78      0.063767905457
  79      0.141175485954
  80     -0.185158570584
  81     -0.276482143590
  82     -0.133017815887
  83     -0.059871058343
  84      0.109163539866
  85      0.184078653031
  86      0.275351340000
  87      0.006754120999
  88     -0.132159044270
  89     -0.124498872458
 Ene=   0.12963376939698E+01
 Spin= Alpha
 Occup=    0.000000
   1      0.000015986304
   2      0.000008695687
   3     -0.000091947342
   4     -0.000116900680
   5      0.000064560492
   6      0.000296532750
   7      0.000004539355
   8     -0.002534608189
   9      0.000256591502
  10      0.000237355524
  11      0.000577977374
  12      0.000073743915
  13     -0.000186987013
  14     -0.000396535070
  15     -0.000058382664
  16     -0.000945726045
  17     -0.002491495275
  18     -0.000298793254
  19      0.001252682589
  20      0.003322597148
  21      0.000392922622
  22      0.004551876520
  23     -0.002155554345
  24     -0.000559309284
  25     -0.003637034415
  26     -0.004634068751
  27     -0.005610059261
  28      0.003278648178
  29      0.000759483017
  30      0.006450619902
  31      0.007032277497
  32     -0.000827922590
  33      0.001561349930
  34      0.000247647786
  35      0.000004007843
  36      0.000006246341
  37     -0.000001842519
  38     -0.000010576062
  39      0.000002389723
  40     -0.000036137043
  41      0.000009824837
  42      0.000162449963
  43     -0.001627750193
  44      0.001396240247
  45      0.000535000440
  46      0.000752121199
  47      0.000208417109
  48     -0.002315690368
  49     -0.002177713537
  50      0.000769304759
  51      0.000710055834
  52      0.000203430808
  53     -0.000180914938
  54      0.001512377410
  55      0.001212310911
  56      0.000197214028
  57     -0.002656806157
  58      0.008022877896
  59      0.000561315579
  60      0.000748345299
  61      0.000109673280
  62     -0.002095083975
  63     -0.001554999422
  64      0.000048763087
  65      0.000720691713
  66      0.000017004601
  67      0.000564204550
  68      0.001413620914
  69      0.001200545261
  70      0.000217386391
  71      0.000594577915
  72      0.001858503859
  73     -0.003411372782
  74      0.001566232745
  75     -0.000811805016
  76     -0.002238298540
  77     -0.003876317450
  78      0.001476893937
  79     -0.000668772326
  80     -0.001208948947
  81     -0.002632087149
  82     -0.004066727771
  83      0.001720985865
  84     -0.000389106924
  85     -0.000445119961
  86     -0.000190577105
  87      0.001867000578
  88     -0.003086268963
  89     -0.000703872454
 Ene=   0.13139586868776E+01
 Spin= Alpha
 Occup=    0.000000
   1      0.000016961168
   2      0.000010436461
   3     -0.000212969706
   4     -0.000364045738
   5      0.000325913013
   6      0.000731649937
   7     -0.000797213900
   8      0.002603239635
   9     -0.000693615772
  10      0.019796572841
  11      0.030379720143
  12      0.002666621606
  13     -0.014369348882
  14     -0.021200371206
  15     -0.001879079587
  16     -0.084470636553
  17     -0.130445490116
  18     -0.011439084098
  19      0.115149686743
  20      0.175841592597
  21      0.015451713522
  22     -0.004325999323
  23     -0.043112527551
  24     -0.021157572117
  25     -0.306641346814
  26     -0.133259365128
  27      0.006643230339
  28      0.068221473179
  29      0.033267349821
  30      0.485945131637
  31      0.209524599687