[Molden Format]
[Title]
generated by TRESC, real part1 of MOs of job Ni0-C2H4
 
[Atoms] AU
Ni   1  28    1.8539796126    6.7825327278   -0.4903308426
 C   2   6    4.6704257640    4.7931727241    1.2726747479
 C   3   6    5.0465532453    4.7581863879   -1.3126919263
 H   4   1    5.6975577332    6.1191094603    2.4870942128
 H   5   1    3.7846974132    3.1964352679    2.2493349313
 H   6   1    4.4712691419    3.1312517299   -2.4574086438
 H   7   1    6.3839198639    6.0535352724   -2.2192553710
[GTO]
  1 0
 s  6 1.0
    71074.8032110000        0.0049184150
    10672.0209410000        0.0200173975
     2428.1389007000        0.0784715325
      685.5359514800        0.2482002663
      223.1007286300        0.4665280195
       76.8420140400        0.3374151926
 s  1 1.0
      148.7112201600        1.0000000000
 s  1 1.0
       17.4591549900        1.0000000000
 s  1 1.0
        7.1625280700        1.0000000000
 s  1 1.0
       12.5561371300        1.0000000000
 s  1 1.0
        2.0735740500        1.0000000000
 s  1 1.0
        0.8538264100        1.0000000000
 s  1 1.0
        0.1053676600        1.0000000000
 s  1 1.0
        0.0381340900        1.0000000000
 p  5 1.0
      916.7360866200        0.0107030171
      216.0613991300        0.0711467350
       68.3839148200        0.2646675976
       24.5938439500        0.5093159720
        9.1392960200        0.3283291628
 p  1 1.0
        4.7193371700        1.0000000000
 p  1 1.0
        1.8161849200        1.0000000000
 p  1 1.0
        0.6784075100        1.0000000000
 d  4 1.0
       47.0938321100        0.0346401353
       13.1464639700        0.1833736831
        4.4170548900        0.4455621030
        1.4771565100        0.5627236040
 d  1 1.0
        0.4373592200        1.0000000000
 p  1 1.0
        0.1465880000        1.0000000000
 f  1 1.0
        2.1740000000        1.0000000000
 
  2 0
 s  5 1.0
     1238.4016938000        0.0059599745
      186.2900499200        0.0422621111
       42.2511763500        0.1866575214
       11.6765579300        0.4675815865
        3.5930506500        0.4422897287
 s  1 1.0
        0.4024514700        1.0000000000
 s  1 1.0
        0.1309018300        1.0000000000
 p  3 1.0
        9.4680970600        0.0570294585
        2.0103545100        0.3130471495
        0.5477100500        0.7605135301
 p  1 1.0
        0.1526861400        1.0000000000
 d  1 1.0
        0.8000000000        1.0000000000
 
  3 0
 s  5 1.0
     1238.4016938000        0.0059599745
      186.2900499200        0.0422621111
       42.2511763500        0.1866575214
       11.6765579300        0.4675815865
        3.5930506500        0.4422897287
 s  1 1.0
        0.4024514700        1.0000000000
 s  1 1.0
        0.1309018300        1.0000000000
 p  3 1.0
        9.4680970600        0.0570294585
        2.0103545100        0.3130471495
        0.5477100500        0.7605135301
 p  1 1.0
        0.1526861400        1.0000000000
 d  1 1.0
        0.8000000000        1.0000000000
 
  4 0
 s  3 1.0
       13.0107010000        0.0391282527
        1.9622572000        0.2855840539
        0.4445379600        0.7689908602
 s  1 1.0
        0.1219496200        1.0000000000
 p  1 1.0
        0.8000000000        1.0000000000
 
  5 0
 s  3 1.0
       13.0107010000        0.0391282527
        1.9622572000        0.2855840539
        0.4445379600        0.7689908602
 s  1 1.0
        0.1219496200        1.0000000000
 p  1 1.0
        0.8000000000        1.0000000000
 
  6 0
 s  3 1.0
       13.0107010000        0.0391282527
        1.9622572000        0.2855840539
        0.4445379600        0.7689908602
 s  1 1.0
        0.1219496200        1.0000000000
 p  1 1.0
        0.8000000000        1.0000000000
 
  7 0
 s  3 1.0
       13.0107010000        0.0391282527
        1.9622572000        0.2855840539
        0.4445379600        0.7689908602
 s  1 1.0
        0.1219496200        1.0000000000
 p  1 1.0
        0.8000000000        1.0000000000
 
[5D]
[7F]
[9G]
[MO]
 Ene=  -0.30112347325798E+03
 Spin= Alpha
 Occup=    1.000000
   1      0.742660682850
   2      0.064609661988
   3      0.052948072408
   4      0.006809458316
   5     -0.038390535807
   6     -0.000391761427
   7      0.000066862748
   8     -0.000005775189
   9      0.000002511020
  10     -0.000001444139
  11      0.000000815442
  12     -0.000000223604
  13      0.000000997224
  14     -0.000000557912
  15      0.000000153328
  16     -0.000000722050
  17      0.000000412800
  18     -0.000000111108
  19      0.000000444764
  20     -0.000000268266
  21      0.000000068784
  22     -0.000000660893
  23      0.000000118270
  24      0.000000059081
  25     -0.000000265508
  26      0.000000600001
  27      0.000000182044
  28     -0.000000030409
  29     -0.000000020153
  30      0.000000088896
  31     -0.000000202392
  32     -0.000000587696
  33      0.000000385826
  34     -0.000000093553
  35      0.000000025273
  36      0.000000061579
  37     -0.000000042861
  38     -0.000000013195
  39      0.000000021534
  40      0.000000011198
  41      0.000000050888
  42     -0.000000024874
  43      0.000000251844
  44      0.000000685274
  45     -0.000000106234
  46      0.000000075121
  47     -0.000000067805
  48     -0.000000199470
  49      0.000000107221
  50      0.000000231918
  51      0.000000001414
  52     -0.000000076342
  53      0.000000062951
  54     -0.000000059543
  55      0.000000153790
  56     -0.000000024925
  57      0.000000256471
  58      0.000000655978
  59     -0.000000119848
  60      0.000000075466
  61      0.000000032649
  62     -0.000000114236
  63      0.000000101608
  64     -0.000000294214
  65      0.000000036717
  66      0.000000043270
  67     -0.000000017959
  68     -0.000000077813
  69      0.000000170447
  70     -0.000000066805
  71     -0.000000290422
  72     -0.000000029107
  73      0.000000090272
  74     -0.000000057457
  75     -0.000000068476
  76     -0.000000295375
  77     -0.000000089234
  78     -0.000000003268
  79     -0.000000064022
  80     -0.000000067016
  81     -0.000000291889
  82     -0.000000105440
  83     -0.000000001959
  84      0.000000036372
  85     -0.000000067703
  86     -0.000000291736
  87     -0.000000044195
  88      0.000000092948
  89      0.000000044616
 Ene=  -0.30112239739980E+03
 Spin= Alpha
 Occup=    0.000000
   1     -0.000000000044
   2     -0.000000000004
   3     -0.000000000003
   4     -0.000000000001
   5      0.000000000003
   6      0.000000000001
   7     -0.000000000001
   8      0.000000000007
   9     -0.000000000002
  10     -0.000000026199
  11      0.000000000000
  12      0.000000168115
  13      0.000000019508
  14     -0.000000000002
  15     -0.000000125182
  16     -0.000000012732
  17      0.000000000004
  18      0.000000081708
  19      0.000000005308
  20     -0.000000000005
  21     -0.000000034076
  22      0.000000000064
  23      0.000000000228
  24     -0.000000000208
  25     -0.000000000038
  26      0.000000000032
  27      0.000000000023
  28      0.000000000090
  29     -0.000000000042
  30     -0.000000000013
  31      0.000000000005
  32     -0.000000001236
  33      0.000000000002
  34      0.000000007974
  35      0.000000000001
  36      0.000000000000
  37     -0.000000000001
  38      0.000000000001
  39     -0.000000000005
  40     -0.000000000000
  41      0.000000000001
  42     -0.000000000023
  43     -0.000000000322
  44      0.000000005338
  45     -0.000000000051
  46      0.000000000038
  47     -0.000000000042
  48      0.000000001036
  49     -0.000000000463
  50     -0.000000002872
  51      0.000000000125
  52      0.000000000259
  53     -0.000000000194
  54     -0.000000000012
  55     -0.000000000031
  56      0.000000000024
  57      0.000000000325
  58     -0.000000005355
  59      0.000000000061
  60     -0.000000000043
  61     -0.000000000026
  62     -0.000000000169
  63      0.000000000378
  64     -0.000000003058
  65      0.000000000025
  66      0.000000000277
  67     -0.000000000175
  68     -0.000000000068
  69      0.000000000094
  70      0.000000000080
  71     -0.000000000819
  72      0.000000000090
  73     -0.000000000088
  74      0.000000000289
  75      0.000000000077
  76     -0.000000000860
  77      0.000000000099
  78     -0.000000000087
  79      0.000000000299
  80     -0.000000000073
  81      0.000000000832
  82     -0.000000000175
  83      0.000000000087
  84      0.000000000250
  85     -0.000000000080
  86      0.000000000856
  87     -0.000000000181
  88      0.000000000097
  89      0.000000000252
 Ene=  -0.36400635104665E+02
 Spin= Alpha
 Occup=    1.000000
   1     -0.257480012136
   2     -0.114845841011
   3      0.571811451676
   4      0.387055030865
   5     -0.035842495947
   6      0.011149818919
   7     -0.000057851701
   8     -0.000164639781
   9      0.000080363047
  10      0.000017684567
  11     -0.000011391894
  12      0.000000109835
  13      0.000045894373
  14     -0.000031187332
  15      0.000006869041
  16     -0.000019520736
  17      0.000013347950
  18     -0.000002948348
  19      0.000010907614
  20     -0.000007409171
  21      0.000001650373
  22     -0.000175533675
  23      0.000022296249
  24      0.000031146971
  25     -0.000116530623
  26      0.000268475153
  27      0.000055560219
  28     -0.000007740895
  29     -0.000008608717
  30      0.000033155843
  31     -0.000076216419
  32     -0.000016597946
  33      0.000011106128
  34     -0.000002583646
  35      0.000000166990
  36      0.000000388327
  37     -0.000000323240
  38     -0.000000139956
  39     -0.000000518534
  40     -0.000000627222
  41     -0.000003307087
  42      0.000000389424
  43     -0.000003767555
  44      0.000024131187
  45      0.000000418881
  46     -0.000000266336
  47      0.000000299699
  48     -0.000008943106
  49      0.000005234147
  50     -0.000000631335
  51     -0.000000603915
  52     -0.000000458757
  53      0.000000502008
  54     -0.000000570878
  55      0.000001458688
  56      0.000000390125
  57     -0.000003736015
  58      0.000023767418
  59      0.000000459225
  60     -0.000000323426
  61     -0.000000172341
  62     -0.000008076711
  63      0.000006135256
  64     -0.000002215979
  65     -0.000000358975
  66      0.000000476335
  67     -0.000000129356
  68     -0.000000736960
  69      0.000001566968
  70     -0.000001455785
  71     -0.000008008267
  72     -0.000000784684
  73      0.000000431052
  74     -0.000000707382
  75     -0.000001677985
  76     -0.000008424449
  77     -0.000000636500
  78      0.000000613559
  79     -0.000000643992
  80     -0.000001456872
  81     -0.000007991817
  82     -0.000000840311
  83      0.000000642584
  84      0.000000462487
  85     -0.000001673062
  86     -0.000008370094
  87     -0.000000947856
  88      0.000000442296
  89      0.000000415625
 Ene=  -0.36372418433526E+02
 Spin= Alpha
 Occup=    0.000000
   1      0.000000000717
   2      0.000000000319
   3     -0.000000001518
   4     -0.000000000968
   5     -0.000000000050
   6     -0.000000000148
   7      0.000000000129
   8     -0.000000000132
   9     -0.000000000231
  10      0.000000681412
  11     -0.000000000531
  12     -0.000004968710
  13     -0.000000196193
  14      0.000000000111
  15      0.000001337511
  16      0.000000113879
  17     -0.000000000050
  18     -0.000000784458
  19     -0.000000047942
  20     -0.000000000008
  21      0.000000330363
  22      0.000000006344
  23      0.000000022274
  24     -0.000000021520
  25     -0.000000003652
  26      0.000000003156
  27     -0.000000003097
  28     -0.000000011081
  29      0.000000009560
  30      0.000000001712
  31     -0.000000001386
  32      0.000000012186
  33      0.000000000055
  34     -0.000000085499
  35     -0.000000000290
  36      0.000000000148
  37     -0.000000000205
  38      0.000000000073
  39     -0.000000000846
  40     -0.000000000025
  41      0.000000000162
  42      0.000000000273
  43     -0.000000000487
  44     -0.000000018367
  45      0.000000000314
  46     -0.000000000153
  47      0.000000000172
  48     -0.000000015186
  49      0.000000007352
  50      0.000000016188
  51     -0.000000001724
  52     -0.000000001728
  53      0.000000001340
  54      0.000000000357
  55     -0.000000000296
  56     -0.000000000284
  57      0.000000000632
  58      0.000000018580
  59     -0.000000000394
  60      0.000000000214
  61      0.000000000107
  62      0.000000009672
  63     -0.000000006851
  64      0.000000019990
  65      0.000000000590
  66     -0.000000002325
  67      0.000000001393
  68      0.000000000248
  69     -0.000000000100
  70     -0.000000001655
  71      0.000000006623
  72     -0.000000000468
  73      0.000000000177
  74     -0.000000002379
  75     -0.000000002106
  76      0.000000006060
  77     -0.000000000159
  78      0.000000000660
  79     -0.000000002293
  80      0.000000001985
  81     -0.000000005723
  82      0.000000000742
  83     -0.000000000659
  84     -0.000000002085
  85      0.000000001636
  86     -0.000000006571
  87      0.000000001159
  88     -0.000000000213
  89     -0.000000002116
 Ene=  -0.31962494807309E+02
 Spin= Alpha
 Occup=    0.704324
   1      0.000015602620
   2      0.000008837772
   3     -0.000151754340
   4     -0.000111933131
   5      0.000181738735
   6      0.000124652604
   7     -0.000127482380
   8      0.000098862764
   9      0.000290515477
  10      0.584229519200
  11      0.047907482654
  12      0.017950256104
  13     -0.003737385807
  14      0.000107532954
  15     -0.000095035488
  16      0.013038200780
  17      0.000824765355
  18      0.000400011870
  19     -0.004462473629
  20     -0.000176860192
  21     -0.000147201391
  22      0.000004899413
  23     -0.000003665791
  24      0.000002313321
  25     -0.000005231303
  26      0.000009500640
  27     -0.000018522421
  28      0.000008939146
  29     -0.000006195086
  30      0.000039490217
  31     -0.000054346873
  32      0.001248349015
  33     -0.000129838797
  34      0.000068211023
  35     -0.000006855977
  36     -0.000023489431
  37     -0.000023075510
  38     -0.000000728553
  39      0.000004752880
  40     -0.000040472951
  41      0.000013469060
  42      0.000004172326
  43     -0.000101408065
  44     -0.000120285035
  45      0.000023033362
  46     -0.000008465108
  47      0.000020663356
  48      0.000064980642
  49     -0.000043927681
  50      0.000036909716
  51      0.000001678558
  52      0.000025802893
  53     -0.000008024401
  54      0.000022699329
  55     -0.000036889871
  56      0.000003429689
  57     -0.000110556737
  58      0.000028957619
  59      0.000025450814
  60     -0.000007347158
  61     -0.000012367557
  62      0.000078624028
  63     -0.000054824568
  64      0.000071425082
  65     -0.000010126059
  66     -0.000023000291
  67      0.000002516904
  68      0.000030794886
  69     -0.000041721855
  70      0.000037418934
  71     -0.000200935347
  72      0.000037006250
  73     -0.000020249587
  74      0.000035299918
  75      0.000027515460
  76     -0.000059750096
  77      0.000015499955
  78      0.000008609098
  79      0.000007917333
  80      0.000029987040
  81     -0.000082931804
  82      0.000021986827
  83      0.000006143421
  84     -0.000010271814
  85      0.000039586274
  86     -0.000225053024
  87      0.000050261177
  88     -0.000023901310
  89     -0.000029666400
 Ene=  -0.31950053805206E+02
 Spin= Alpha
 Occup=    0.350158
   1     -0.000001644300
   2     -0.000001008052
   3      0.000020675097
   4      0.000015493308
   5     -0.000026422483
   6     -0.000018359140
   7      0.000018791942
   8     -0.000015241249
   9     -0.000042317150
  10      0.016260149291
  11      0.010910781023
  12     -0.586973642451
  13     -0.000114005407
  14     -0.000095162117
  15      0.003734320716
  16      0.000354996671
  17      0.000260496999
  18     -0.013004112328
  19     -0.000106031638
  20     -0.000099007068
  21      0.004366978325
  22     -0.000003405405
  23     -0.000009522103
  24      0.000006456179
  25      0.000002082111
  26     -0.000002666260
  27     -0.000004028028
  28     -0.000025993873
  29      0.000017978938
  30     -0.000001182986
  31      0.000005836997
  32     -0.000007824704
  33      0.000046527494
  34     -0.001020045588
  35      0.000006561712
  36      0.000001229156
  37     -0.000001304330
  38      0.000004975900
  39     -0.000011737181
  40      0.000001499430
  41      0.000000915360
  42      0.000002495552
  43      0.000048463772
  44     -0.000591510770
  45      0.000005178107
  46     -0.000004042252
  47      0.000002010947
  48     -0.000146734680
  49      0.000068005762
  50      0.000331500469
  51     -0.000015660394
  52     -0.000033855534
  53      0.000024329436
  54     -0.000001360364
  55      0.000009152097
  56     -0.000003656717
  57     -0.000017729854
  58      0.000606778357
  59     -0.000012915208
  60      0.000007592897
  61      0.000004270556
  62      0.000023324088
  63     -0.000043566230
  64      0.000352945342
  65     -0.000000848286
  66     -0.000029775321
  67      0.000019714660
  68      0.000003977011
  69     -0.000004594605
  70     -0.000015873178
  71      0.000125375089
  72     -0.000014369060
  73      0.000012545028
  74     -0.000038847117
  75     -0.000015581191
  76      0.000116001841
  77     -0.000013333921
  78      0.000010148025
  79     -0.000037130750
  80      0.000006054763
  81     -0.000083625007
  82      0.000015853830
  83     -0.000010055585
  84     -0.000027673423
  85      0.000005292889
  86     -0.000075659670
  87      0.000014916177
  88     -0.000007237422
  89     -0.000026466201
 Ene=  -0.31634709209930E+02
 Spin= Alpha
 Occup=    0.937212
   1      0.000013173287
   2      0.000007295310
   3     -0.000107171152
   4     -0.000058133505
   5      0.000108224343
   6      0.000070004894
   7     -0.000068610954
   8      0.000047165603
   9      0.000161471531
  10      0.022753640488
  11     -0.685931179818
  12     -0.025801134241
  13     -0.000343901372
  14     -0.003602538865
  15     -0.000163393872
  16      0.000615424566
  17     -0.011131460768
  18     -0.000399227045
  19     -0.000279740863
  20      0.003330164727
  21      0.000106857017
  22      0.000002421170
  23     -0.000001995601
  24      0.000001204047
  25     -0.000001827735
  26      0.000001670304
  27     -0.000009193935
  28      0.000002150417
  29     -0.000005163357
  30     -0.000000558828
  31     -0.000035827908
  32      0.000197712085
  33     -0.000813894582
  34     -0.000003175287
  35      0.000006677504
  36      0.000023332990
  37      0.000046888049
  38      0.000005827556
  39     -0.000010682778
  40      0.000067666703
  41     -0.000005686169
  42      0.000002021932
  43     -0.000057336916
  44     -0.000051434479
  45      0.000005899993
  46     -0.000012752340
  47      0.000009986016
  48      0.000035028911
  49     -0.000027126095
  50      0.000013196241
  51     -0.000001180012
  52      0.000006403296
  53     -0.000018456682
  54      0.000002299925
  55     -0.000025615556
  56      0.000001719021
  57     -0.000061263881
  58      0.000009134899
  59      0.000007294136
  60     -0.000012245123
  61     -0.000007300088
  62      0.000037573454
  63     -0.000032066089
  64      0.000032178658
  65     -0.000005096139
  66     -0.000006323559
  67      0.000012249739
  68      0.000004413269
  69     -0.000031482079
  70      0.000013729299
  71     -0.000004360418
  72     -0.000009595476
  73     -0.000010145569
  74     -0.000002847179
  75      0.000022475950
  76     -0.000144227655
  77      0.000020802403
  78     -0.000024836879
  79      0.000025611138
  80      0.000022928554
  81     -0.000154288848
  82      0.000029312063
  83     -0.000026482214
  84     -0.000020638000
  85      0.000014753544
  86     -0.000012747858
  87     -0.000008351382
  88     -0.000011213270
  89     -0.000002321409
 Ene=  -0.31617101354141E+02
 Spin= Alpha
 Occup=    0.632877
   1      0.000003167157
   2      0.000001823475
   3     -0.000029447984
   4     -0.000015631914
   5      0.000030952313
   6      0.000020162276
   7     -0.000019741431
   8      0.000013937635
   9      0.000046217850
  10      0.003827305316
  11     -0.047445786222
  12      0.676961978400
  13      0.000018275792
  14     -0.000222488401
  15      0.003304233762
  16      0.000073978703
  17     -0.000785933180
  18      0.011051868636
  19     -0.000037727452
  20      0.000245867303
  21     -0.003298018749
  22      0.000004991811
  23      0.000015931010
  24     -0.000010487520
  25     -0.000002472650
  26      0.000002475109
  27      0.000001327294
  28      0.000015295976
  29     -0.000010947537
  30      0.000001913037
  31     -0.000007059504
  32      0.000043406706
  33     -0.000079167748
  34      0.000749102583
  35     -0.000007680812
  36     -0.000001137162
  37      0.000003218268
  38     -0.000005711459
  39      0.000013794861
  40      0.000000312216
  41     -0.000000809653
  42     -0.000001797615
  43     -0.000042849917
  44      0.000446547778
  45     -0.000004499628
  46      0.000003140410
  47     -0.000001067534
  48      0.000107238387
  49     -0.000049222511
  50     -0.000246880700
  51      0.000010219274
  52      0.000027005350
  53     -0.000019783331
  54      0.000002209781
  55     -0.000010598397
  56      0.000002913518
  57      0.000008920787
  58     -0.000459720768
  59      0.000011525446
  60     -0.000007105795
  61     -0.000003729212
  62     -0.000009323565
  63      0.000026799840
  64     -0.000259492019
  65      0.000001305827
  66      0.000021068798
  67     -0.000013908447
  68     -0.000002476986
  69      0.000001746671
  70      0.000012356326
  71     -0.000098138678
  72      0.000011236102
  73     -0.000010793673
  74      0.000029304179
  75      0.000012497166
  76     -0.000095284028
  77      0.000011886170
  78     -0.000008656759
  79      0.000028920002
  80     -0.000001842650
  81      0.000052611790
  82     -0.000010198256
  83      0.000006311899
  84      0.000019042508
  85     -0.000001569106
  86      0.000050932287
  87     -0.000010643268
  88      0.000004635825
  89      0.000018676556
 Ene=  -0.31612357875924E+02
 Spin= Alpha
 Occup=    0.357058
   1     -0.000012701803
   2     -0.000007013217
   3      0.000101725137
   4      0.000053502976
   5     -0.000101068807
   6     -0.000064936082
   7      0.000063401377
   8     -0.000042826672
   9     -0.000149796679
  10     -0.392893487671
  11      0.102963232535
  12      0.019222493911
  13     -0.002055912335
  14      0.000368471723
  15      0.000087924707
  16     -0.006385416552
  17      0.001762540333
  18      0.000310531764
  19      0.001941759701
  20     -0.000573121084
  21     -0.000085280324
  22     -0.000001450331
  23      0.000002643263
  24     -0.000001707809
  25      0.000000335674
  26     -0.000001683297
  27      0.000008227093
  28     -0.000003262614
  29      0.000002966984
  30     -0.000014720836
  31      0.000026571204
  32     -0.000546769988
  33      0.000208321091
  34      0.000001704403
  35      0.000003059775
  36      0.000011399194
  37      0.000006653929
  38     -0.000000842605
  39     -0.000000672231
  40      0.000014431871
  41     -0.000008507603
  42     -0.000002013346
  43      0.000051761551
  44      0.000073916194
  45     -0.000010090288
  46      0.000005670396
  47     -0.000009992783
  48     -0.000028347758
  49      0.000019757901
  50     -0.000027101618
  51      0.000000358848
  52     -0.000011518233
  53      0.000006653123
  54     -0.000009872276
  55      0.000021144141
  56     -0.000001451031
  57      0.000058518104
  58     -0.000036272206
  59     -0.000010436511
  60      0.000004579915
  61      0.000006108723
  62     -0.000038288904
  63      0.000027733072
  64     -0.000045811976
  65      0.000006112724
  66      0.000011803184
  67     -0.000004051217
  68     -0.000014020188
  69      0.000025055147
  70     -0.000017152974
  71      0.000080056812
  72     -0.000012878406
  73      0.000010135825
  74     -0.000012829592
  75     -0.000015414217
  76      0.000049088699
  77     -0.000010100086
  78      0.000000861215
  79     -0.000006986932
  80     -0.000016961841
  81      0.000066420507
  82     -0.000015311701
  83      0.000002785398
  84      0.000008794662
  85     -0.000018673149
  86      0.000097486770
  87     -0.000019460446
  88      0.000012510004
  89      0.000013363908
 Ene=  -0.31605321735296E+02
 Spin= Alpha
 Occup=    0.018371
   1      0.000000387491
   2      0.000000216224
   3     -0.000003222809
   4     -0.000001675075
   5      0.000003235559
   6      0.000002088370
   7     -0.000002034699
   8      0.000001389577
   9      0.000004790462
  10      0.005776068706
  11     -0.008559343366
  12      0.021662184723
  13      0.000027978198
  14     -0.000047588738
  15      0.000114179866
  16      0.000095419517
  17     -0.000137735006
  18      0.000349389685
  19     -0.000030112551
  20      0.000041624740
  21     -0.000103818210
  22      0.000000192016
  23      0.000000605989
  24     -0.000000202000
  25     -0.000000163046
  26      0.000000099397
  27     -0.000000139824
  28      0.000000500689
  29     -0.000000455886
  30      0.000000279435
  31     -0.000000861568
  32      0.000010434883
  33     -0.000011689599
  34      0.000023936665
  35     -0.000000239382
  36     -0.000000004889
  37      0.000000396338
  38     -0.000000129337
  39      0.000000372133
  40      0.000000357303
  41      0.000000044807
  42     -0.000000014416
  43     -0.000002537719
  44      0.000012969053
  45      0.000000036913
  46     -0.000000075088
  47      0.000000178916
  48      0.000004100379
  49     -0.000002019362
  50     -0.000007459564
  51      0.000000309989
  52      0.000001077514
  53     -0.000000870916
  54      0.000000226101
  55     -0.000000834050
  56      0.000000126651
  57     -0.000000986134
  58     -0.000014229959
  59      0.000000572825
  60     -0.000000384622
  61     -0.000000259599
  62      0.000000509883
  63      0.000000184809
  64     -0.000007455019
  65     -0.000000079679
  66      0.000000464529
  67     -0.000000294277
  68      0.000000150303
  69     -0.000000530429
  70      0.000000729283
  71     -0.000004293105
  72      0.000000463595
  73     -0.000000566416
  74      0.000001094623
  75      0.000000789034
  76     -0.000004834867
  77      0.000000682681
  78     -0.000000481299
  79      0.000001221061
  80      0.000000344980
  81     -0.000000430134
  82      0.000000109960
  83     -0.000000040015
  84      0.000000328248
  85      0.000000332662
  86      0.000000214015
  87     -0.000000140400
  88     -0.000000108005
  89      0.000000398753
 Ene=  -0.10278078390911E+02
 Spin= Alpha
 Occup=    1.000000
   1     -0.000001010172
   2     -0.000001020009
   3      0.000057340646
   4      0.000116001697
   5     -0.000120359375
   6     -0.000185479178
   7      0.000099719707
   8      0.009008636021
   9     -0.001306588905
  10      0.000011123661
  11     -0.000007652809
  12      0.000004393887
  13     -0.000049488262
  14      0.000034664742
  15     -0.000027010988
  16      0.000037361282
  17     -0.000029255473
  18      0.000053846475
  19      0.000299141749
  20     -0.000195650448
  21      0.000004584410
  22     -0.000077873453
  23      0.000039764275
  24     -0.000029244953
  25      0.000066239716
  26     -0.000160180598
  27      0.000127833791
  28      0.000024087470
  29     -0.000018898880
  30     -0.000075314224
  31      0.000166800449
  32      0.004001672124
  33     -0.002730954244
  34      0.001318865211
  35      0.000010311093
  36      0.000010680803
  37     -0.000006771785
  38     -0.000005240168
  39      0.000017060396
  40      0.000008215980
  41      0.000039318051
  42      0.694489544408
  43      0.037824413828
  44     -0.030889166741
  45     -0.000445979910
  46      0.000175196649
  47      0.001461081314
  48      0.002627226004
  49     -0.001898033412
  50      0.002090591566
  51      0.000132571467
  52      0.000123188668
  53      0.000040793619
  54     -0.000692199010
  55      0.001571141343
  56      0.412825386362
  57      0.021157459142
  58     -0.011808712926
  59      0.000001491830
  60      0.000180237616
  61     -0.002205805466
  62      0.002253040903
  63     -0.001616625403
  64      0.001756354317
  65     -0.000893809520
  66      0.000009730564
  67      0.000189216310
  68     -0.000330472612
  69      0.000773754736
  70     -0.002647855624
  71      0.006497959142
  72      0.001070194174
  73      0.001843523837
  74      0.000924267739
  75     -0.002650016222
  76      0.006493673480
  77     -0.001319830627
  78     -0.001805396822
  79      0.000626745997
  80     -0.001452320780
  81      0.003832804054
  82     -0.000717697347
  83     -0.000922549218
  84     -0.000335979251
  85     -0.001453182611
  86      0.003830052734
  87      0.000578057431
  88      0.001056227840
  89     -0.000175197259
 Ene=  -0.10278005235334E+02
 Spin= Alpha
 Occup=    0.000000
   1     -0.000000000041
   2     -0.000000000075
   3      0.000000005110
   4      0.000000009643
   5     -0.000000010838
   6     -0.000000012949
   7      0.000000015381
   8      0.000000118440
   9      0.000000002202
  10      0.000000000038
  11     -0.000000000221
  12     -0.000000000495
  13      0.000000034331
  14      0.000000000944
  15     -0.000000070956
  16     -0.000000006914
  17     -0.000000000978
  18      0.000000000951
  19      0.000000011614
  20     -0.000000004183
  21      0.000000012286
  22      0.000000011730
  23      0.000000046922
  24     -0.000000032246
  25     -0.000000006360
  26      0.000000000009
  27      0.000000007747
  28     -0.000000036829
  29     -0.000000000998
  30     -0.000000005835
  31      0.000000016085