[Molden Format]
[Title]
generated by TRESC, imaginary part1 of MOs of job Ni0-C2H4
 
[Atoms] AU
Ni   1  28    1.8539796126    6.7825327278   -0.4903308426
 C   2   6    4.6704257640    4.7931727241    1.2726747479
 C   3   6    5.0465532453    4.7581863879   -1.3126919263
 H   4   1    5.6975577332    6.1191094603    2.4870942128
 H   5   1    3.7846974132    3.1964352679    2.2493349313
 H   6   1    4.4712691419    3.1312517299   -2.4574086438
 H   7   1    6.3839198639    6.0535352724   -2.2192553710
[GTO]
  1 0
 s  6 1.0
    71074.8032110000        0.0049184150
    10672.0209410000        0.0200173975
     2428.1389007000        0.0784715325
      685.5359514800        0.2482002663
      223.1007286300        0.4665280195
       76.8420140400        0.3374151926
 s  1 1.0
      148.7112201600        1.0000000000
 s  1 1.0
       17.4591549900        1.0000000000
 s  1 1.0
        7.1625280700        1.0000000000
 s  1 1.0
       12.5561371300        1.0000000000
 s  1 1.0
        2.0735740500        1.0000000000
 s  1 1.0
        0.8538264100        1.0000000000
 s  1 1.0
        0.1053676600        1.0000000000
 s  1 1.0
        0.0381340900        1.0000000000
 p  5 1.0
      916.7360866200        0.0107030171
      216.0613991300        0.0711467350
       68.3839148200        0.2646675976
       24.5938439500        0.5093159720
        9.1392960200        0.3283291628
 p  1 1.0
        4.7193371700        1.0000000000
 p  1 1.0
        1.8161849200        1.0000000000
 p  1 1.0
        0.6784075100        1.0000000000
 d  4 1.0
       47.0938321100        0.0346401353
       13.1464639700        0.1833736831
        4.4170548900        0.4455621030
        1.4771565100        0.5627236040
 d  1 1.0
        0.4373592200        1.0000000000
 p  1 1.0
        0.1465880000        1.0000000000
 f  1 1.0
        2.1740000000        1.0000000000
 
  2 0
 s  5 1.0
     1238.4016938000        0.0059599745
      186.2900499200        0.0422621111
       42.2511763500        0.1866575214
       11.6765579300        0.4675815865
        3.5930506500        0.4422897287
 s  1 1.0
        0.4024514700        1.0000000000
 s  1 1.0
        0.1309018300        1.0000000000
 p  3 1.0
        9.4680970600        0.0570294585
        2.0103545100        0.3130471495
        0.5477100500        0.7605135301
 p  1 1.0
        0.1526861400        1.0000000000
 d  1 1.0
        0.8000000000        1.0000000000
 
  3 0
 s  5 1.0
     1238.4016938000        0.0059599745
      186.2900499200        0.0422621111
       42.2511763500        0.1866575214
       11.6765579300        0.4675815865
        3.5930506500        0.4422897287
 s  1 1.0
        0.4024514700        1.0000000000
 s  1 1.0
        0.1309018300        1.0000000000
 p  3 1.0
        9.4680970600        0.0570294585
        2.0103545100        0.3130471495
        0.5477100500        0.7605135301
 p  1 1.0
        0.1526861400        1.0000000000
 d  1 1.0
        0.8000000000        1.0000000000
 
  4 0
 s  3 1.0
       13.0107010000        0.0391282527
        1.9622572000        0.2855840539
        0.4445379600        0.7689908602
 s  1 1.0
        0.1219496200        1.0000000000
 p  1 1.0
        0.8000000000        1.0000000000
 
  5 0
 s  3 1.0
       13.0107010000        0.0391282527
        1.9622572000        0.2855840539
        0.4445379600        0.7689908602
 s  1 1.0
        0.1219496200        1.0000000000
 p  1 1.0
        0.8000000000        1.0000000000
 
  6 0
 s  3 1.0
       13.0107010000        0.0391282527
        1.9622572000        0.2855840539
        0.4445379600        0.7689908602
 s  1 1.0
        0.1219496200        1.0000000000
 p  1 1.0
        0.8000000000        1.0000000000
 
  7 0
 s  3 1.0
       13.0107010000        0.0391282527
        1.9622572000        0.2855840539
        0.4445379600        0.7689908602
 s  1 1.0
        0.1219496200        1.0000000000
 p  1 1.0
        0.8000000000        1.0000000000
 
[5D]
[7F]
[9G]
[MO]
 Ene=  -0.30112347325798E+03
 Spin= Alpha
 Occup=    1.000000
   1      0.525209857466
   2      0.045691972311
   3      0.037444892789
   4      0.004815651062
   5     -0.027149798628
   6     -0.000277053829
   7      0.000047285367
   8     -0.000004084222
   9      0.000001775797
  10     -0.000000874170
  11      0.000000796920
  12     -0.000000158389
  13      0.000000598718
  14     -0.000000554179
  15      0.000000107888
  16     -0.000000442197
  17      0.000000394449
  18     -0.000000078402
  19      0.000000286202
  20     -0.000000232172
  21      0.000000048525
  22     -0.000000467299
  23      0.000000084103
  24      0.000000041677
  25     -0.000000185763
  26      0.000000425222
  27      0.000000128731
  28     -0.000000021570
  29     -0.000000014212
  30      0.000000062438
  31     -0.000000143323
  32     -0.000000408709
  33      0.000000283185
  34     -0.000000066257
  35      0.000000017961
  36      0.000000044174
  37     -0.000000029341
  38     -0.000000009714
  39      0.000000014980
  40      0.000000007136
  41      0.000000036164
  42     -0.000000017585
  43      0.000000178124
  44      0.000000484137
  45     -0.000000075002
  46      0.000000053191
  47     -0.000000047933
  48     -0.000000141029
  49      0.000000076032
  50      0.000000164297
  51      0.000000001021
  52     -0.000000053880
  53      0.000000044730
  54     -0.000000042019
  55      0.000000108794
  56     -0.000000017633
  57      0.000000181354
  58      0.000000464412
  59     -0.000000084749
  60      0.000000053510
  61      0.000000023090
  62     -0.000000080623
  63      0.000000072095
  64     -0.000000207768
  65      0.000000025935
  66      0.000000030474
  67     -0.000000012865
  68     -0.000000054893
  69      0.000000120595
  70     -0.000000047244
  71     -0.000000206867
  72     -0.000000020166
  73      0.000000063821
  74     -0.000000040316
  75     -0.000000048432
  76     -0.000000207234
  77     -0.000000063284
  78     -0.000000001889
  79     -0.000000045619
  80     -0.000000047375
  81     -0.000000204910
  82     -0.000000074807
  83     -0.000000000967
  84      0.000000025943
  85     -0.000000047896
  86     -0.000000208017
  87     -0.000000030730
  88      0.000000065685
  89      0.000000031314
 Ene=  -0.30112239739980E+03
 Spin= Alpha
 Occup=    0.000000
   1     -0.000000000026
   2     -0.000000000002
   3     -0.000000000002
   4     -0.000000000000
   5      0.000000000001
   6      0.000000000000
   7     -0.000000000001
   8      0.000000000004
   9     -0.000000000001
  10     -0.000000000001
  11      0.000000026197
  12      0.000000112274
  13      0.000000000008
  14     -0.000000019496
  15     -0.000000083601
  16     -0.000000000021
  17      0.000000012703
  18      0.000000054565
  19      0.000000000029
  20     -0.000000005267
  21     -0.000000022753
  22      0.000000000054
  23      0.000000000209
  24     -0.000000000054
  25      0.000000000034
  26      0.000000000039
  27      0.000000000011
  28      0.000000000041
  29     -0.000000000057
  30     -0.000000000000
  31      0.000000000010
  32     -0.000000000029
  33      0.000000001193
  34      0.000000005321
  35      0.000000000001
  36      0.000000000001
  37     -0.000000000001
  38      0.000000000003
  39     -0.000000000003
  40      0.000000000001
  41      0.000000000000
  42     -0.000000000015
  43     -0.000000000211
  44      0.000000003499
  45     -0.000000000027
  46      0.000000000034
  47     -0.000000000027
  48      0.000000000710
  49     -0.000000000255
  50     -0.000000001878
  51      0.000000000086
  52      0.000000000187
  53     -0.000000000103
  54      0.000000000007
  55     -0.000000000016
  56      0.000000000015
  57      0.000000000212
  58     -0.000000003507
  59      0.000000000053
  60     -0.000000000008
  61     -0.000000000015
  62     -0.000000000126
  63      0.000000000224
  64     -0.000000002006
  65      0.000000000014
  66      0.000000000172
  67     -0.000000000132
  68     -0.000000000024
  69      0.000000000072
  70      0.000000000055
  71     -0.000000000733
  72      0.000000000108
  73     -0.000000000062
  74      0.000000000232
  75      0.000000000048
  76     -0.000000000367
  77      0.000000000044
  78     -0.000000000010
  79      0.000000000157
  80     -0.000000000065
  81      0.000000000712
  82     -0.000000000143
  83      0.000000000110
  84      0.000000000187
  85     -0.000000000036
  86      0.000000000393
  87     -0.000000000057
  88      0.000000000061
  89      0.000000000145
 Ene=  -0.36400635104665E+02
 Spin= Alpha
 Occup=    1.000000
   1     -0.176857952015
   2     -0.078885347536
   3      0.392766031899
   4      0.265860483608
   5     -0.024619507811
   6      0.007658590520
   7     -0.000039737091
   8     -0.000113087844
   9      0.000055199806
  10      0.000011866169
  11     -0.000008261640
  12      0.000000044564
  13      0.000032057819
  14     -0.000020620891
  15      0.000004720931
  16     -0.000013716998
  17      0.000008706050
  18     -0.000002023673
  19      0.000007619015
  20     -0.000004898611
  21      0.000001135774
  22     -0.000120570894
  23      0.000015319109
  24      0.000021373630
  25     -0.000079933416
  26      0.000184459853
  27      0.000038162862
  28     -0.000005319409
  29     -0.000005904871
  30      0.000022747955
  31     -0.000052364009
  32     -0.000011425010
  33      0.000007591732
  34     -0.000001776848
  35      0.000000114306
  36      0.000000250001
  37     -0.000000247068
  38     -0.000000079348
  39     -0.000000345891
  40     -0.000000381143
  41     -0.000002282361
  42      0.000000267584
  43     -0.000002589615
  44      0.000016587774
  45      0.000000287678
  46     -0.000000184699
  47      0.000000206065
  48     -0.000006141558
  49      0.000003599183
  50     -0.000000437703
  51     -0.000000414915
  52     -0.000000315702
  53      0.000000344421
  54     -0.000000393269
  55      0.000001001629
  56      0.000000267873
  57     -0.000002564433
  58      0.000016312791
  59      0.000000313489
  60     -0.000000223338
  61     -0.000000118455
  62     -0.000005539058
  63      0.000004223484
  64     -0.000001525144
  65     -0.000000246622
  66      0.000000327055
  67     -0.000000088628
  68     -0.000000507153
  69      0.000001075702
  70     -0.000001002248
  71     -0.000005498797
  72     -0.000000539951
  73      0.000000295793
  74     -0.000000485835
  75     -0.000001150890
  76     -0.000005790871
  77     -0.000000436538
  78      0.000000420178
  79     -0.000000441957
  80     -0.000000996658
  81     -0.000005488574
  82     -0.000000577286
  83      0.000000440430
  84      0.000000318139
  85     -0.000001152605
  86     -0.000005747730
  87     -0.000000652418
  88      0.000000303854
  89      0.000000285280
 Ene=  -0.36372418433526E+02
 Spin= Alpha
 Occup=    0.000000
   1      0.000000000468
   2      0.000000000208
   3     -0.000000000991
   4     -0.000000000633
   5     -0.000000000030
   6     -0.000000000094
   7      0.000000000080
   8     -0.000000000071
   9     -0.000000000158
  10     -0.000000002411
  11     -0.000000683869
  12     -0.000003313066
  13     -0.000000000009
  14      0.000000195985
  15      0.000000892268
  16      0.000000000074
  17     -0.000000113628
  18     -0.000000523261
  19     -0.000000000205
  20      0.000000047553
  21      0.000000220338
  22      0.000000005488
  23      0.000000021498
  24     -0.000000004256
  25      0.000000003063
  26      0.000000003612
  27     -0.000000002454
  28     -0.000000009480
  29      0.000000003133
  30     -0.000000000899
  31     -0.000000001525
  32      0.000000000640
  33     -0.000000011170
  34     -0.000000056929
  35     -0.000000000171
  36      0.000000000212
  37     -0.000000000074
  38      0.000000000596
  39     -0.000000000348
  40      0.000000000192
  41      0.000000000020
  42      0.000000000179
  43     -0.000000000312
  44     -0.000000012072
  45      0.000000000052
  46     -0.000000000336
  47      0.000000000094
  48     -0.000000008473
  49      0.000000007057
  50      0.000000010789
  51     -0.000000001149
  52     -0.000000001250
  53      0.000000000752
  54     -0.000000000149
  55     -0.000000000347
  56     -0.000000000186
  57      0.000000000417
  58      0.000000012167
  59     -0.000000000313
  60      0.000000000055
  61      0.000000000062
  62      0.000000005555
  63     -0.000000005684
  64      0.000000013010
  65      0.000000000404
  66     -0.000000001464
  67      0.000000001044
  68     -0.000000000134
  69     -0.000000000204
  70     -0.000000001790
  71      0.000000004928
  72     -0.000000000718
  73      0.000000000091
  74     -0.000000001741
  75     -0.000000000669
  76      0.000000003403
  77      0.000000000022
  78      0.000000000030
  79     -0.000000001356
  80      0.000000001177
  81     -0.000000005741
  82      0.000000000748
  83     -0.000000000872
  84     -0.000000001577
  85      0.000000001198
  86     -0.000000002299
  87      0.000000000234
  88     -0.000000000097
  89     -0.000000001208
 Ene=  -0.31962494807309E+02
 Spin= Alpha
 Occup=    0.704324
   1      0.000011482922
   2      0.000006504606
   3     -0.000111715271
   4     -0.000082394341
   5      0.000133794073
   6      0.000091782534
   7     -0.000093888100
   8      0.000073218494
   9      0.000213598889
  10      0.011349741384
  11     -0.597953245067
  12     -0.014133082890
  13     -0.000470651783
  14      0.003521610569
  15      0.000049084275
  16      0.000487943354
  17     -0.013166454531
  18     -0.000286458609
  19     -0.000267938905
  20      0.004430650003
  21      0.000081394450
  22      0.000003768835
  23     -0.000001876299
  24      0.000001774027
  25     -0.000001407740
  26      0.000008104156
  27     -0.000013848499
  28      0.000003512567
  29     -0.000007615679
  30     -0.000000497553
  31     -0.000052447695
  32      0.000246503839
  33     -0.001111968185
  34      0.000009747715
  35      0.000005628073
  36      0.000019929445
  37      0.000039805139
  38      0.000004804936
  39     -0.000008949902
  40      0.000057321512
  41     -0.000005257688
  42      0.000002933520
  43     -0.000075871165
  44     -0.000063984966
  45      0.000008635358
  46     -0.000018160660
  47      0.000013986594
  48      0.000052672338
  49     -0.000036680707
  50      0.000012897725
  51     -0.000000669823
  52      0.000007427734
  53     -0.000024422263
  54      0.000000935471
  55     -0.000032580005
  56      0.000002648145
  57     -0.000079798933
  58     -0.000004719643
  59      0.000011154112
  60     -0.000017827669
  61     -0.000010193479
  62      0.000054066795
  63     -0.000041905289
  64      0.000037237698
  65     -0.000005346960
  66     -0.000007511879
  67      0.000015930179
  68      0.000003265974
  69     -0.000039836507
  70      0.000017424025
  71     -0.000003878903
  72     -0.000013532930
  73     -0.000013415314
  74     -0.000003584972
  75      0.000031476359
  76     -0.000195864297
  77      0.000027778499
  78     -0.000034331621
  79      0.000035066445
  80      0.000031842810
  81     -0.000205948412
  82      0.000038666944
  83     -0.000036201562
  84     -0.000027417268
  85      0.000018564039
  86     -0.000011671386
  87     -0.000012475545
  88     -0.000014439796
  89     -0.000002564923
 Ene=  -0.31950053805206E+02
 Spin= Alpha
 Occup=    0.350158
   1      0.000000857751
   2      0.000000493646
   3     -0.000008800743
   4     -0.000006457399
   5      0.000010661258
   6      0.000007351209
   7     -0.000007499823
   8      0.000005876468
   9      0.000017026009
  10      0.011817544980
  11     -0.017703355474
  12      0.060277180991
  13     -0.000080617761
  14      0.000109223398
  15     -0.000384261766
  16      0.000268474254
  17     -0.000393424110
  18      0.001336245745
  19     -0.000096110356
  20      0.000135417973
  21     -0.000449448803
  22      0.000000568513
  23      0.000000800743
  24     -0.000000621304
  25     -0.000000352565
  26      0.000000726954
  27     -0.000000398871
  28      0.000002995883
  29     -0.000002166884
  30      0.000000969295
  31     -0.000003334824
  32      0.000035711560
  33     -0.000040060610
  34      0.000106571953
  35     -0.000000662118
  36     -0.000000061858
  37      0.000000804695
  38     -0.000000393040
  39      0.000001041964
  40      0.000000615281
  41      0.000000047131
  42     -0.000000078537
  43     -0.000009441963
  44      0.000056225979
  45      0.000000230754
  46     -0.000000300781
  47      0.000000658845
  48      0.000018047421
  49     -0.000009026882
  50     -0.000032854112
  51      0.000001625433
  52      0.000004268152
  53     -0.000003390652
  54      0.000000669691
  55     -0.000002712243
  56      0.000000528575
  57     -0.000002961143
  58     -0.000061809884
  59      0.000002215422
  60     -0.000001462225
  61     -0.000001009605
  62      0.000000921941
  63      0.000002038008
  64     -0.000033581229
  65     -0.000000295374
  66      0.000002327874
  67     -0.000001504819
  68      0.000000374631
  69     -0.000001617414
  70      0.000002969159
  71     -0.000017455641
  72      0.000001902954
  73     -0.000002129653
  74      0.000004669326
  75      0.000003128309
  76     -0.000018948794
  77      0.000002523693
  78     -0.000001851830
  79      0.000005011453
  80      0.000000971379
  81      0.000000745082
  82     -0.000000013175
  83      0.000000115275
  84      0.000001815830
  85      0.000000876370
  86      0.000002431977
  87     -0.000000778580
  88     -0.000000208601
  89      0.000001984890
 Ene=  -0.31634709209930E+02
 Spin= Alpha
 Occup=    0.937212
   1      0.000014197869
   2      0.000007864225
   3     -0.000115582436
   4     -0.000062702678
   5      0.000116750510
   6      0.000075518025
   7     -0.000073988713
   8      0.000050484733
   9      0.000174454913
  10      0.642253056466
  11      0.198087051496
  12      0.029772837694
  13      0.003151833176
  14      0.001467569981
  15      0.000171145314
  16      0.010539727009
  17      0.002987187126
  18      0.000482164397
  19     -0.003198174118
  20     -0.000804854895
  21     -0.000150308875
  22      0.000002498060
  23     -0.000002473521
  24      0.000001505175
  25      0.000000217685
  26      0.000002656562
  27     -0.000009576962
  28      0.000005659780
  29     -0.000003116698
  30      0.000026022207
  31     -0.000027364728
  32      0.000841704528
  33      0.000076069468
  34      0.000053339982
  35     -0.000009322401
  36     -0.000031841183
  37     -0.000036354772
  38     -0.000002120030
  39      0.000007873029
  40     -0.000060720431
  41      0.000017094962
  42      0.000002258380
  43     -0.000061287995
  44     -0.000067785276
  45      0.000013958307
  46     -0.000002652429
  47      0.000011831138
  48      0.000037998735
  49     -0.000023194804
  50      0.000021806441
  51      0.000000844366
  52      0.000018260800
  53     -0.000002808297
  54      0.000015911810
  55     -0.000023160651
  56      0.000001792585
  57     -0.000067009407
  58      0.000023490500
  59      0.000015005626
  60     -0.000001806640
  61     -0.000006912616
  62      0.000045467262
  63     -0.000028843173
  64      0.000042768461
  65     -0.000007530383
  66     -0.000015385912
  67     -0.000000692741
  68      0.000021552042
  69     -0.000025774338
  70      0.000023144206
  71     -0.000143210777
  72      0.000028310174
  73     -0.000012748623
  74      0.000025870534
  75      0.000015335079
  76     -0.000013416082
  77      0.000006994109
  78      0.000011355439
  79      0.000000276348
  80      0.000016746507
  81     -0.000027130602
  82      0.000009759988
  83      0.000010015785
  84     -0.000002625347
  85      0.000024225330
  86     -0.000157922512
  87      0.000037415162
  88     -0.000015136176
  89     -0.000020495237
 Ene=  -0.31617101354141E+02
 Spin= Alpha
 Occup=    0.632877
   1     -0.000000573674
   2     -0.000000360395
   3      0.000006995151
   4      0.000003700192
   5     -0.000007902618
   6     -0.000005263576
   7      0.000005149676
   8     -0.000003809196
   9     -0.000011905169
  10      0.024634874966
  11     -0.002761904817
  12     -0.403973508227
  13      0.000111749236
  14     -0.000031301537
  15     -0.001973036105
  16      0.000402683418
  17     -0.000035125592
  18     -0.006593985072
  19     -0.000117075514
  20      0.000006116443
  21      0.001966788729
  22     -0.000002759048
  23     -0.000009305339
  24      0.000006984023
  25      0.000001359829
  26     -0.000001330832
  27     -0.000001656719
  28     -0.000008939524
  29      0.000005893162
  30     -0.000000151437
  31      0.000001211470
  32      0.000017568116
  33      0.000005316470
  34     -0.000444828123
  35      0.000004587840
  36      0.000000726592
  37     -0.000000727798
  38      0.000003679316
  39     -0.000008502918
  40      0.000001260135
  41      0.000000855766
  42      0.000001269243
  43      0.000020015835
  44     -0.000271736846
  45      0.000003537642
  46     -0.000002679007
  47      0.000001640464
  48     -0.000060494880
  49      0.000027071182
  50      0.000148799481
  51     -0.000006130235
  52     -0.000015035742
  53      0.000010668988
  54     -0.000000569659
  55      0.000003999353
  56     -0.000001575100
  57     -0.000011297867
  58      0.000275607285
  59     -0.000005896598
  60      0.000003505807
  61      0.000001556100
  62      0.000009304713
  63     -0.000018948932
  64      0.000158173291
  65     -0.000001359622
  66     -0.000013509578
  67      0.000008945876
  68      0.000002560893
  69     -0.000003790722
  70     -0.000005740404
  71      0.000052697871
  72     -0.000006132665
  73      0.000005380059
  74     -0.000016626278
  75     -0.000005596222
  76      0.000048396916
  77     -0.000005671146
  78      0.000004236284
  79     -0.000015828924
  80      0.000002985491
  81     -0.000040966805
  82      0.000008080824
  83     -0.000004835414
  84     -0.000012597577
  85      0.000002708603
  86     -0.000037151534
  87      0.000007331859
  88     -0.000003969272
  89     -0.000012055189
 Ene=  -0.31612357875924E+02
 Spin= Alpha
 Occup=    0.357058
   1     -0.000013798196
   2     -0.000007620518
   3      0.000110617976
   4      0.000058174408
   5     -0.000109944225
   6     -0.000070653008
   7      0.000068986896
   8     -0.000046699106
   9     -0.000162904017
  10     -0.282694310230
  11      0.326729392902
  12      0.012609462714
  13     -0.001322341427
  14      0.001764489510
  15      0.000076818991
  16     -0.004676386313
  17      0.005282342480
  18      0.000192602178
  19      0.001456007241
  20     -0.001595588981
  21     -0.000047498027
  22     -0.000001731876
  23      0.000002385683
  24     -0.000001364268
  25      0.000000727199
  26     -0.000001782328
  27      0.000008901021
  28     -0.000003299759
  29      0.000004030196
  30     -0.000010034432
  31      0.000031371334
  32     -0.000452657209
  33      0.000436986057
  34     -0.000009072344
  35     -0.000000227774
  36     -0.000000653936
  37     -0.000012715966
  38     -0.000002679848
  39      0.000003266914
  40     -0.000015105916
  41     -0.000003817652
  42     -0.000002098768
  43      0.000057274631
  44      0.000063091124
  45     -0.000009087695
  46      0.000008439454
  47     -0.000010510853
  48     -0.000033834710
  49      0.000024233642
  50     -0.000019861045
  51      0.000000534269
  52     -0.000010766256
  53      0.000011553777
  54     -0.000007784372
  55      0.000024102674
  56     -0.000001668743
  57      0.000062617605
  58     -0.000021798262
  59     -0.000010054172
  60      0.000007647996
  61      0.000006913719
  62     -0.000039893697
  63      0.000030339579
  64     -0.000039535787
  65      0.000006102377
  66      0.000010181409
  67     -0.000006997272
  68     -0.000011372487
  69      0.000028751388
  70     -0.000017086324
  71      0.000058908246
  72     -0.000005728865
  73      0.000010860300
  74     -0.000008372965
  75     -0.000018933076
  76      0.000087183909
  77     -0.000014668007
  78      0.000009591818
  79     -0.000014461205
  80     -0.000019960144
  81      0.000100612490
  82     -0.000021010087
  83      0.000011294111
  84      0.000013213058
  85     -0.000018284549
  86      0.000071824183
  87     -0.000010434637
  88      0.000012667791
  89      0.000009864816
 Ene=  -0.31605321735296E+02
 Spin= Alpha
 Occup=    0.018371
   1      0.000000124838
   2      0.000000083116
   3     -0.000001761891
   4     -0.000000921045
   5      0.000002045867
   6      0.000001361842
   7     -0.000001333604
   8      0.000001005452
   9      0.000003075014
  10     -0.012812706483
  11     -0.002892570590
  12      0.131789255630
  13     -0.000068588172
  14     -0.000016058386
  15      0.000696399119
  16     -0.000205370109
  17     -0.000046803831
  18      0.002123850167
  19      0.000059693686
  20      0.000014487899
  21     -0.000629550996
  22      0.000000916795
  23      0.000003417893
  24     -0.000002356817
  25     -0.000000477831
  26      0.000000488305
  27      0.000000547932
  28      0.000002650840
  29     -0.000001830162
  30     -0.000000121881
  31     -0.000000330558
  32     -0.000011024676
  33     -0.000004846096
  34      0.000142011336
  35     -0.000001411158
  36      0.000000076543
  37      0.000000662841
  38     -0.000001158848
  39      0.000002686928
  40      0.000000281175
  41     -0.000000424709
  42     -0.000000417664
  43     -0.000006204729
  44      0.000087831868
  45     -0.000001233548
  46      0.000000848310
  47     -0.000000585530
  48      0.000019154613
  49     -0.000008509828
  50     -0.000047933307
  51      0.000001937757
  52      0.000004723850
  53     -0.000003466560
  54      0.000000082963
  55     -0.000001216825
  56      0.000000497103
  57      0.000003957565
  58     -0.000088893647
  59      0.000001818760
  60     -0.000001156378
  61     -0.000000473675
  62     -0.000003083581
  63      0.000006096233
  64     -0.000050992154
  65      0.000000494338
  66      0.000004420981
  67     -0.000002824807
  68     -0.000000970638
  69      0.000001318298
  70      0.000001694693
  71     -0.000015903124
  72      0.000001737846
  73     -0.000001676356
  74      0.000005137894
  75      0.000001741479
  76     -0.000015884769
  77      0.000001845577
  78     -0.000001519310
  79      0.000005155301
  80     -0.000000988601
  81      0.000012851971
  82     -0.000002578506
  83      0.000001395955
  84      0.000003989877
  85     -0.000000972290
  86      0.000013028864
  87     -0.000002653053
  88      0.000001355914
  89      0.000004003944
 Ene=  -0.10278078390911E+02
 Spin= Alpha
 Occup=    1.000000
   1     -0.000000710151
   2     -0.000000717009
   3      0.000040303997
   4      0.000081535369
   5     -0.000084597904
   6     -0.000130370841
   7      0.000070090764
   8      0.006331879710
   9     -0.000918356165
  10      0.000007802060
  11     -0.000005399575
  12      0.000003091301
  13     -0.000034681416
  14      0.000024510379
  15     -0.000018989288
  16      0.000026249952
  17     -0.000020580471
  18      0.000037847633
  19      0.000210228006
  20     -0.000137564675
  21      0.000003216935
  22     -0.000054738419
  23      0.000027973943
  24     -0.000020507486
  25      0.000046506856
  26     -0.000112619879
  27      0.000089851945
  28      0.000016943029
  29     -0.000013286501
  30     -0.000052974578
  31      0.000117221298
  32      0.002812518823
  33     -0.001919653076
  34      0.000927106649
  35      0.000007248154
  36      0.000007515213
  37     -0.000004746306
  38     -0.000003679120
  39      0.000011990151
  40      0.000005785033
  41      0.000027632395
  42      0.488154370621
  43      0.026586753105
  44     -0.021712424933
  45     -0.000314729206
  46      0.000121349750
  47      0.001026910849
  48      0.001847054880
  49     -0.001333461645
  50      0.001469673768
  51      0.000093145227
  52      0.000086324737
  53      0.000028261732
  54     -0.000486560369
  55      0.001104400212
  56      0.290140409501
  57      0.014869657769
  58     -0.008298512825
  59      0.000000206409
  60      0.000125342815
  61     -0.001550416881
  62      0.001583706919
  63     -0.001135902789
  64      0.001234719345
  65     -0.000628197162
  66      0.000007061793
  67      0.000133287537
  68     -0.000232334680
  69      0.000543731263
  70     -0.001860647586
  71      0.004567032739
  72      0.000751931637
  73      0.001295437123
  74      0.000649326712
  75     -0.001863266578
  76      0.004564768655
  77     -0.000927957834
  78     -0.001269532945
  79      0.000440858286
  80     -0.001021122996
  81      0.002693976952
  82     -0.000504529138
  83     -0.000648726110
  84     -0.000236342970
  85     -0.001020858161
  86      0.002691583762
  87      0.000405921372
  88      0.000742043890
  89     -0.000122913498
 Ene=  -0.10278005235334E+02
 Spin= Alpha
 Occup=    0.000000
   1     -0.000000000027
   2     -0.000000000049
   3      0.000000003343
   4      0.000000006310
   5     -0.000000007091
   6     -0.000000008475
   7      0.000000010082
   8      0.000000077153
   9      0.000000001499
  10      0.000000000340
  11      0.000000000334
  12     -0.000000000286
  13     -0.000000001618
  14     -0.000000036211
  15     -0.000000049704
  16      0.000000002895
  17      0.000000010678
  18      0.000000001598
  19      0.000000001535
  20     -0.000000011955
  21      0.000000007262
  22      0.000000007826
  23      0.000000032071
  24     -0.000000020606
  25      0.000000007466
  26      0.000000004988
  27      0.000000010617
  28      0.000000001591
  29      0.000000038199
  30     -0.000000000093
  31      0.000000008673