[Molden Format]
[Title]
generated by TRESC, real part2 of MOs of job Ni0-C2H4
 
[Atoms] AU
Ni   1  28    1.8539796126    6.7825327278   -0.4903308426
 C   2   6    4.6704257640    4.7931727241    1.2726747479
 C   3   6    5.0465532453    4.7581863879   -1.3126919263
 H   4   1    5.6975577332    6.1191094603    2.4870942128
 H   5   1    3.7846974132    3.1964352679    2.2493349313
 H   6   1    4.4712691419    3.1312517299   -2.4574086438
 H   7   1    6.3839198639    6.0535352724   -2.2192553710
[GTO]
  1 0
 s  6 1.0
    71074.8032110000        0.0049184150
    10672.0209410000        0.0200173975
     2428.1389007000        0.0784715325
      685.5359514800        0.2482002663
      223.1007286300        0.4665280195
       76.8420140400        0.3374151926
 s  1 1.0
      148.7112201600        1.0000000000
 s  1 1.0
       17.4591549900        1.0000000000
 s  1 1.0
        7.1625280700        1.0000000000
 s  1 1.0
       12.5561371300        1.0000000000
 s  1 1.0
        2.0735740500        1.0000000000
 s  1 1.0
        0.8538264100        1.0000000000
 s  1 1.0
        0.1053676600        1.0000000000
 s  1 1.0
        0.0381340900        1.0000000000
 p  5 1.0
      916.7360866200        0.0107030171
      216.0613991300        0.0711467350
       68.3839148200        0.2646675976
       24.5938439500        0.5093159720
        9.1392960200        0.3283291628
 p  1 1.0
        4.7193371700        1.0000000000
 p  1 1.0
        1.8161849200        1.0000000000
 p  1 1.0
        0.6784075100        1.0000000000
 d  4 1.0
       47.0938321100        0.0346401353
       13.1464639700        0.1833736831
        4.4170548900        0.4455621030
        1.4771565100        0.5627236040
 d  1 1.0
        0.4373592200        1.0000000000
 p  1 1.0
        0.1465880000        1.0000000000
 f  1 1.0
        2.1740000000        1.0000000000
 
  2 0
 s  5 1.0
     1238.4016938000        0.0059599745
      186.2900499200        0.0422621111
       42.2511763500        0.1866575214
       11.6765579300        0.4675815865
        3.5930506500        0.4422897287
 s  1 1.0
        0.4024514700        1.0000000000
 s  1 1.0
        0.1309018300        1.0000000000
 p  3 1.0
        9.4680970600        0.0570294585
        2.0103545100        0.3130471495
        0.5477100500        0.7605135301
 p  1 1.0
        0.1526861400        1.0000000000
 d  1 1.0
        0.8000000000        1.0000000000
 
  3 0
 s  5 1.0
     1238.4016938000        0.0059599745
      186.2900499200        0.0422621111
       42.2511763500        0.1866575214
       11.6765579300        0.4675815865
        3.5930506500        0.4422897287
 s  1 1.0
        0.4024514700        1.0000000000
 s  1 1.0
        0.1309018300        1.0000000000
 p  3 1.0
        9.4680970600        0.0570294585
        2.0103545100        0.3130471495
        0.5477100500        0.7605135301
 p  1 1.0
        0.1526861400        1.0000000000
 d  1 1.0
        0.8000000000        1.0000000000
 
  4 0
 s  3 1.0
       13.0107010000        0.0391282527
        1.9622572000        0.2855840539
        0.4445379600        0.7689908602
 s  1 1.0
        0.1219496200        1.0000000000
 p  1 1.0
        0.8000000000        1.0000000000
 
  5 0
 s  3 1.0
       13.0107010000        0.0391282527
        1.9622572000        0.2855840539
        0.4445379600        0.7689908602
 s  1 1.0
        0.1219496200        1.0000000000
 p  1 1.0
        0.8000000000        1.0000000000
 
  6 0
 s  3 1.0
       13.0107010000        0.0391282527
        1.9622572000        0.2855840539
        0.4445379600        0.7689908602
 s  1 1.0
        0.1219496200        1.0000000000
 p  1 1.0
        0.8000000000        1.0000000000
 
  7 0
 s  3 1.0
       13.0107010000        0.0391282527
        1.9622572000        0.2855840539
        0.4445379600        0.7689908602
 s  1 1.0
        0.1219496200        1.0000000000
 p  1 1.0
        0.8000000000        1.0000000000
 
[5D]
[7F]
[9G]
[MO]
 Ene=   0.87838575667354E+00
 Spin= Alpha
 Occup=    0.000000
   1      0.000005100569
   2      0.000002567192
   3     -0.000009871318
   4      0.000002795174
   5     -0.000022629349
   6      0.000026943534
   7      0.000135458388
   8     -0.001512962126
   9      0.000089537462
  10     -0.000006834854
  11      0.000000914224
  12     -0.000001012148
  13      0.000007988566
  14     -0.000001606176
  15      0.000000987083
  16      0.000010396720
  17      0.000003000971
  18      0.000001184975
  19      0.000021273548
  20     -0.000031016286
  21      0.000005535516
  22      0.000466303361
  23     -0.000184829082
  24     -0.000056524052
  25     -0.000386815215
  26     -0.000351178789
  27     -0.001202367659
  28      0.000425218065
  29      0.000173552259
  30      0.000848906188
  31      0.001165075360
  32     -0.000846583250
  33      0.000698045891
  34     -0.000151147054
  35      0.000000427363
  36      0.000001062897
  37     -0.000001901619
  38     -0.000000096968
  39      0.000000845183
  40     -0.000000172652
  41      0.000001557855
  42      0.000072010641
  43     -0.000864779395
  44      0.002409512370
  45      0.000167420933
  46      0.000039595788
  47     -0.000011061231
  48     -0.000802614490
  49     -0.000069446511
  50      0.000190340026
  51      0.000049103308
  52     -0.000019617067
  53      0.000026986536
  54     -0.000255641303
  55     -0.000109055518
  56      0.000068377346
  57     -0.000822652089
  58      0.002136838114
  59      0.000152941616
  60      0.000046920988
  61      0.000062894381
  62     -0.000768499932
  63     -0.000219196213
  64     -0.000511765830
  65      0.000033014367
  66     -0.000076359622
  67     -0.000064672337
  68     -0.000239172916
  69     -0.000090917268
  70     -0.000190133700
  71     -0.000204997981
  72     -0.000241565209
  73      0.000041871002
  74      0.000093757465
  75     -0.000433704150
  76     -0.000715070371
  77      0.000101999993
  78     -0.000083772399
  79     -0.000027652884
  80     -0.000465443325
  81     -0.000742720918
  82      0.000081915862
  83     -0.000083172585
  84      0.000058415462
  85     -0.000130566339
  86     -0.000149713113
  87     -0.000197570573
  88      0.000031287289
  89     -0.000160581538
 Ene=   0.10457839624992E+01
 Spin= Alpha
 Occup=    0.000000
   1     -0.000059931700
   2     -0.000035001834
   3      0.000575059219
   4      0.000921871138
   5     -0.000757875382
   6     -0.001980179454
   7      0.001735365043
   8     -0.005002755249
   9      0.001255724230
  10      0.007648092066
  11      0.010623162940
  12      0.001013475174
  13     -0.006623482928
  14     -0.009541818200
  15     -0.000869971618
  16     -0.025634954061
  17     -0.034467898226
  18     -0.003455059858
  19      0.027474840479
  20      0.036092238168
  21      0.003778817112
  22      0.008032184496
  23      0.053040545366
  24      0.031401130299
  25      0.377961693508
  26      0.163377431801
  27     -0.010856118590
  28     -0.074035973851
  29     -0.043549576846
  30     -0.527551801813
  31     -0.228245165792
  32      0.017866315083
  33      0.032986679500
  34      0.002034595017
  35     -0.000035131978
  36     -0.000104292879
  37     -0.000129614847
  38     -0.000059932843
  39      0.000021311654
  40     -0.000385055858
  41      0.000059367144
  42      0.000008798114
  43      0.000037648732
  44      0.001970768909
  45      0.005759183664
  46      0.004677377609
  47      0.002102433976
  48      0.050690265521
  49      0.083766813710
  50      0.003935472722
  51     -0.001143816587
  52      0.011558044703
  53     -0.021596735960
  54      0.251758357196
  55      0.110022897530
  56      0.000371368923
  57     -0.002426420065
  58      0.002697992271
  59      0.009633271330
  60      0.010157788497
  61      0.000657875133
  62      0.058393439063
  63      0.094190910183
  64      0.007667677610
  65      0.008863774745
  66      0.057614157698
  67      0.059293431944
  68      0.243142624383
  69      0.098458817990
  70     -0.044278156912
  71     -0.049268587327
  72      0.191911079039
  73     -0.104329617564
  74     -0.036997447478
  75      0.043904114162
  76      0.049724947508
  77     -0.172243472585
  78      0.126446569834
  79      0.042280891549
  80      0.051002842184
  81      0.052854759300
  82     -0.152442574228
  83      0.128017883773
  84     -0.089692299807
  85     -0.050774891468
  86     -0.053709027388
  87      0.173525267999
  88     -0.100264785753
  89      0.091838909542
 Ene=   0.10581105577078E+01
 Spin= Alpha
 Occup=    0.000000
   1     -0.000001410201
   2     -0.000000813322
   3      0.000012551181
   4      0.000019646501
   5     -0.000015641718
   6     -0.000043005463
   7      0.000033458876
   8     -0.000067361523
   9      0.000026142012
  10      0.000014600825
  11     -0.000007022868
  12     -0.000022097558
  13     -0.000021233553
  14      0.000003993335
  15      0.000102808693
  16     -0.000060586737
  17      0.000031357773
  18      0.000071562271
  19      0.000120778609
  20     -0.000040007205
  21     -0.000403072355
  22     -0.000021174250
  23     -0.000147029677
  24     -0.000082889305
  25     -0.000002390921
  26      0.000084906818
  27      0.000264623619
  28      0.001110491153
  29      0.000450706410
  30     -0.000132890427
  31     -0.000173223515
  32     -0.000157365607
  33      0.000026667933
  34      0.000859987563
  35      0.000002048853
  36     -0.000003695899
  37     -0.000000521118
  38     -0.000010914603
  39     -0.000002173279
  40      0.000002030486
  41     -0.000000037093
  42     -0.000009729712
  43      0.000482871426
  44     -0.003824303650
  45      0.000212618822
  46      0.000287659844
  47      0.000092881054
  48     -0.002084320498
  49     -0.003645764349
  50      0.000759828055
  51      0.000007646669
  52      0.000173327714
  53      0.000094764042
  54      0.000188386606
  55      0.000069307877
  56      0.000021450695
  57     -0.000528591551
  58      0.003851405747
  59     -0.000139196382
  60     -0.000352427041
  61      0.000033347914
  62      0.001710378652
  63      0.003736494835
  64      0.001246337561
  65      0.000016845588
  66      0.000021479022
  67      0.000118947253
  68     -0.000190462733
  69     -0.000147850288
  70      0.001252368555
  71      0.001469412387
  72      0.000224598722
  73     -0.000313881322
  74      0.000192858223
  75     -0.000685335598
  76     -0.000996589559
  77     -0.000250404467
  78      0.000003543854
  79     -0.000166606806
  80      0.000709195154
  81      0.000998335207
  82      0.000330141647
  83     -0.000040017034
  84     -0.000098962247
  85     -0.001233567263
  86     -0.001469054265
  87     -0.000215093987
  88      0.000282847956
  89      0.000113798412
 Ene=   0.10885354014194E+01
 Spin= Alpha
 Occup=    0.000000
   1     -0.003894172359
   2     -0.002334240834
   3      0.043039168675
   4      0.071627227968
   5     -0.061874173355
   6     -0.148456195113
   7      0.149345403872
   8     -0.520212912894
   9      0.098218056170
  10      0.041894430931
  11     -0.027504809458
  12      0.006519314667
  13     -0.025889594291
  14      0.016312425290
  15     -0.003964747940
  16     -0.191423857216
  17      0.126204452831
  18     -0.029887909243
  19      0.264675732670
  20     -0.172755960688
  21      0.041219051796
  22      0.188262848945
  23     -0.066399384269
  24      0.035075609234
  25     -0.087357782963
  26      0.212986162691
  27     -0.238591052632
  28      0.083097368443
  29     -0.041856964373
  30      0.103925470762
  31     -0.251457388124
  32     -0.313983780756
  33      0.208538859593
  34     -0.048555835445
  35     -0.000304281588
  36     -0.000801750799
  37      0.000530568840
  38      0.000153005852
  39     -0.000342964185
  40     -0.000243254310
  41     -0.001175422798
  42      0.030235926775
  43     -0.215012774805
  44      0.388061106989
  45      0.166114833739
  46     -0.111663322039
  47      0.056787278067
  48     -0.238963846653
  49      0.163486271686
  50     -0.087402349367
  51      0.030936544585
  52      0.195789792331
  53     -0.138933078066
  54      0.017088319659
  55     -0.077926466182
  56      0.029467109165
  57     -0.211501009144
  58      0.393798066315
  59      0.174891616745
  60     -0.113641951759
  61     -0.005258650364
  62     -0.254941416896
  63      0.164012557910
  64      0.010728088421
  65     -0.068454896029
  66     -0.170455911963
  67      0.110344670545
  68      0.067722250561
  69     -0.119318690564
  70     -0.001325014869
  71     -0.049017035446
  72      0.078203951847
  73     -0.068982328696
  74      0.043142921019
  75      0.000003462592
  76     -0.049894098857
  77      0.088441727399
  78     -0.046579955959
  79      0.043623411074
  80     -0.003734678096
  81     -0.050911090766
  82      0.096884870531
  83     -0.050439421103
  84     -0.016419298164
  85     -0.002960395733
  86     -0.049248898802
  87      0.087327717232
  88     -0.067668108872
  89     -0.017965169910
 Ene=   0.11038692147506E+01
 Spin= Alpha
 Occup=    0.000000
   1      0.000000005100
   2      0.000000001346
   3      0.000000107170
   4      0.000000240562
   5     -0.000000284526
   6     -0.000000328662
   7      0.000001088869
   8     -0.000023932139
   9      0.000003377222
  10     -0.000056845713
  11     -0.000005756583
  12      0.000342722000
  13      0.000134578606
  14      0.000008999991
  15     -0.000826337822
  16      0.000184668475
  17      0.000020491477
  18     -0.001110735521
  19     -0.000504867621
  20     -0.000040774755
  21      0.003086342920
  22     -0.000194323618
  23     -0.000691380041
  24      0.000267014819
  25      0.000058927810
  26     -0.000060182243
  27      0.000692919104
  28      0.002494209859
  29     -0.001058186313
  30     -0.000328491353
  31      0.000200995518
  32     -0.000053785259
  33      0.000037637477
  34      0.000369515300
  35      0.000000056013
  36     -0.000001665117
  37      0.000000584398
  38     -0.000005686576
  39      0.000001630873
  40      0.000001410976
  41     -0.000000455812
  42     -0.000129261575
  43      0.002437315967
  44     -0.016443025351
  45     -0.000008641754
  46      0.000157873471
  47      0.000101857720
  48     -0.000943009661
  49     -0.001617110160
  50      0.004445346162
  51     -0.000076649827
  52      0.000286410563
  53     -0.000095159464
  54      0.000013567100
  55     -0.000040826988
  56      0.000130161650
  57     -0.002452205520
  58      0.016479239196
  59     -0.000035330979
  60     -0.000172942278
  61      0.000103956072
  62     -0.000356001362
  63      0.001761969550
  64      0.004483742732
  65      0.000199166222
  66      0.000169647663
  67     -0.000092474772
  68     -0.000172840809
  69      0.000033334374
  70      0.001374913424
  71      0.001871733989
  72      0.000300049894
  73     -0.000307424713
  74      0.000294404059
  75      0.000652325664
  76      0.000940090133
  77      0.000205874008
  78     -0.000212787731
  79      0.000128689801
  80     -0.000664377324
  81     -0.000921220869
  82     -0.000149961430
  83      0.000167922303
  84      0.000090071101
  85     -0.001371620203
  86     -0.001895059218
  87     -0.000446857396
  88      0.000366678047
  89      0.000162410430
 Ene=   0.11721723899586E+01
 Spin= Alpha
 Occup=    0.000000
   1     -0.001842192061
   2     -0.001000520521
   3      0.010478061890
   4      0.013299972524
   5     -0.007205564158
   6     -0.034370813995
   7      0.000802905107
   8      0.234130258433
   9     -0.016781744483
  10      0.008919833172
  11     -0.006256320436
  12      0.001359740773
  13     -0.005592531446
  14      0.004137166065
  15     -0.000860327482
  16     -0.040089913502
  17      0.027880570402
  18     -0.006124602696
  19      0.051357488894
  20     -0.036228176626
  21      0.007878420987
  22     -0.359075384769
  23      0.076059665824
  24      0.018264319036
  25     -0.091817216848
  26      0.201421707459
  27      0.528963423182
  28     -0.109790464273
  29     -0.030491121369
  30      0.145724567900
  31     -0.324423682473
  32      0.123639069551
  33     -0.082748932808
  34      0.019515501628
  35     -0.000292025531
  36     -0.000741124820
  37      0.000515509860
  38      0.000157020690
  39     -0.000178725740
  40     -0.000041464219
  41     -0.000216696072
  42     -0.013329614210
  43      0.173722210757
  44     -0.451626272233
  45      0.003277427891
  46     -0.002647535132
  47      0.007909584067
  48      0.064806900824
  49     -0.039128439379
  50     -0.060807572789
  51     -0.041245279862
  52      0.015023790473
  53     -0.006797336883
  54      0.012730510064
  55     -0.034669941117
  56     -0.013293712079
  57      0.173156018274
  58     -0.442257444288
  59      0.005547104213
  60     -0.003942657781
  61     -0.006480562037
  62      0.045801180461
  63     -0.033150995905
  64      0.083418694416
  65     -0.041554191770
  66      0.011228428304
  67     -0.004898256462
  68      0.012869519441
  69     -0.035293461212
  70      0.058358689636
  71      0.108539174949
  72      0.047673763096
  73      0.001150478314
  74     -0.021671987856
  75      0.057830982053
  76      0.108096476280
  77      0.021385366901
  78     -0.042439531374
  79     -0.025857162650
  80      0.058570879926
  81      0.109370463446
  82      0.013855106880
  83     -0.041897452754
  84      0.031515001377
  85      0.057572944994
  86      0.107087116119
  87      0.038784733076
  88      0.002909083190
  89      0.034509168607
 Ene=   0.12345265246973E+01
 Spin= Alpha
 Occup=    0.000000
   1     -0.000003265713
   2     -0.000001768808
   3      0.000018093297
   4      0.000022563401
   5     -0.000011681287
   6     -0.000059215059
   7     -0.000001889529
   8      0.000456569466
   9     -0.000038365124
  10      0.000028478708
  11      0.000006521113
  12      0.000007420475
  13     -0.000020881702
  14     -0.000006111001
  15     -0.000008255105
  16     -0.000122305076
  17     -0.000019587669
  18     -0.000030486017
  19      0.000162698823
  20      0.000020464087
  21      0.000049923691
  22     -0.000840106029
  23     -0.000157325288
  24     -0.000442306908
  25     -0.000191402189
  26      0.000447515650
  27      0.001141114627
  28      0.000236233418
  29      0.000601718846
  30      0.000397119572
  31     -0.000615980909
  32      0.000266109519
  33     -0.000102893031
  34      0.000032642746
  35     -0.000000566694
  36     -0.000000994217
  37      0.000001132433
  38      0.000002662047
  39      0.000000822510
  40     -0.000001992182
  41     -0.000000047561
  42     -0.000030966278
  43      0.000377325577
  44     -0.000906768977
  45     -0.000129319647
  46     -0.000179034358
  47     -0.000003613839
  48      0.001850777561
  49      0.002571776696
  50      0.000117400939
  51     -0.000137019377
  52     -0.000108395268
  53     -0.000332783344
  54      0.001280315976
  55      0.000497230071
  56     -0.000026304524
  57      0.000335175449
  58     -0.000798072792
  59      0.000151677225
  60      0.000243644870
  61      0.000013313115
  62     -0.001766651448
  63     -0.002928105726
  64     -0.000090046945
  65     -0.000150944618
  66     -0.000336833929
  67     -0.000514934717
  68     -0.000886645007
  69     -0.000416518525
  70     -0.000575762677
  71     -0.000821850962
  72      0.001931898670
  73     -0.000904510917
  74     -0.000677371787
  75      0.000805447559
  76      0.001237906828
  77     -0.001570681505
  78      0.001126453908
  79      0.000628190679
  80     -0.000635471985
  81     -0.000950042392
  82      0.001059153784
  83     -0.001170594633
  84      0.001127168208
  85      0.000855876290
  86      0.001335168454
  87     -0.001254330961
  88      0.000661927983
  89     -0.001017245605
 Ene=   0.12348080837969E+01
 Spin= Alpha
 Occup=    0.000000
   1      0.000007322321
   2      0.000004256467
   3     -0.000068053883
   4     -0.000107476842
   5      0.000087275173
   6      0.000228574112
   7     -0.000134512422
   8     -0.000878113976
   9      0.000068140019
  10     -0.000260944770
  11     -0.000196867004
  12      0.000148984021
  13      0.000167770657
  14      0.000136592851
  15     -0.000099355526
  16      0.001181008665
  17      0.000835615807
  18     -0.000640965173
  19     -0.001613084745
  20     -0.001105779234
  21      0.000842616409
  22     -0.010382004725
  23     -0.045728997295
  24     -0.070098027513
  25      0.009608102959
  26      0.009536436361
  27      0.013358982858
  28      0.058322579588
  29      0.089148641900
  30     -0.012663604638
  31     -0.012010916454
  32     -0.000474163138
  33      0.000337649226
  34     -0.000068495338
  35      0.000020387226
  36      0.000144434881
  37      0.000076783183
  38      0.000619677322
  39      0.000259365681
  40     -0.000118652516
  41     -0.000030637293
  42     -0.000484002571
  43      0.003161567686
  44     -0.002741132314
  45     -0.029069407680
  46     -0.043392360326
  47     -0.002272410753
  48      0.348009483027
  49      0.533607258010
  50      0.041032278436
  51     -0.007702160032
  52     -0.022922963897
  53     -0.061348827023
  54      0.200423008822
  55      0.092637490837
  56      0.000136304880
  57     -0.001889951964
  58      0.003380418558
  59      0.025622170802
  60      0.039851454202
  61      0.002792781513
  62     -0.347380436800
  63     -0.532077376822
  64     -0.043509717361
  65     -0.013914443468
  66     -0.076292489556
  67     -0.094021487387
  68     -0.182810472072
  69     -0.070061628045
  70     -0.139479641366
  71     -0.208036363409
  72      0.305080684395
  73     -0.135654946488
  74     -0.121440927511
  75      0.138910774049
  76      0.209660478492
  77     -0.254694828075
  78      0.208229790163
  79      0.131894588078
  80     -0.139445955790
  81     -0.210564793033
  82      0.209083770082
  83     -0.208128047952
  84      0.198408256235
  85      0.138010312314
  86      0.209317175728
  87     -0.260802242304
  88      0.132321948818
  89     -0.204189528940
 Ene=   0.12436336861151E+01
 Spin= Alpha
 Occup=    0.000000
   1     -0.000000291443
   2     -0.000000167023
   3      0.000002489531
   4      0.000003877245
   5     -0.000002995808
   6     -0.000008908911
   7      0.000006330140
   8      0.000014115627
   9     -0.000001682932
  10     -0.000017206915
  11     -0.000017524335
  12      0.000057189620
  13      0.000043877132
  14      0.000014031243
  15     -0.000248172110
  16      0.000062497675
  17      0.000072820200
  18     -0.000176762038
  19     -0.000198373049
  20     -0.000100478907
  21      0.000995889048
  22      0.001207492109
  23      0.005461093320
  24      0.006657586156
  25     -0.000834225600
  26     -0.000837041903
  27     -0.002405118680
  28     -0.010604121744
  29     -0.011364843044
  30      0.001608599609
  31      0.001413734026
  32      0.000361913218
  33     -0.000025116200
  34     -0.002416497429
  35     -0.000003821015
  36      0.000024327004
  37      0.000009457667
  38      0.000096198909
  39      0.000030746212
  40     -0.000017676360
  41     -0.000004044575
  42      0.000020525128
  43     -0.001459263551
  44      0.011461387128
  45     -0.001716475368
  46     -0.002753043463
  47     -0.000486295863
  48      0.018574711303
  49      0.029633717340
  50     -0.000617404436
  51     -0.000246648829
  52     -0.001433103998
  53     -0.002195885229
  54      0.002580627824
  55      0.001376580979
  56     -0.000023923780
  57      0.001493022088
  58     -0.011573930611
  59      0.001745621804
  60      0.002661909993
  61     -0.000078278498
  62     -0.017697785516
  63     -0.029621366714
  64     -0.005013546420
  65     -0.000535219669
  66     -0.002029217051
  67     -0.002619332932
  68     -0.002075990899
  69     -0.000768795603
  70     -0.008264385926
  71     -0.011709724648
  72      0.004736203385
  73      0.001182124107
  74     -0.004844820466
  75      0.006569166093
  76      0.010140654503
  77     -0.001736435396
  78      0.004607925410
  79      0.005004854298
  80     -0.006552837218
  81     -0.010051315415
  82      0.000455303443
  83     -0.004570399391
  84      0.005353124245
  85      0.008279171674
  86      0.011693329483
  87     -0.003331864046
  88     -0.001162963462
  89     -0.005928499033
 Ene=   0.12788233212567E+01
 Spin= Alpha
 Occup=    0.000000
   1      0.000004269577
   2      0.000002654822
   3     -0.000056277400
   4     -0.000098612188
   5      0.000088010187
   6      0.000208514023
   7     -0.000220354087
   8      0.000416900189
   9     -0.000096837231
  10      0.000012650065
  11      0.000131413755
  12      0.000202545828
  13     -0.000010890785
  14     -0.000088752719
  15     -0.000151269459
  16     -0.000055142193
  17     -0.000576398207
  18     -0.000833932825
  19      0.000094815295
  20      0.000794960049
  21      0.001053110840
  22     -0.037746679671
  23     -0.169243087231
  24     -0.260205491456
  25      0.028198362114
  26      0.035239752092
  27      0.059941329988
  28      0.269555477013
  29      0.412089626597
  30     -0.045090476459
  31     -0.055898280222
  32     -0.000289845814
  33     -0.000431140850
  34      0.002070616165
  35     -0.000076957572
  36     -0.000489104059
  37     -0.000271791908
  38     -0.002194876384
  39     -0.000922695009
  40      0.000417223999
  41      0.000131852098
  42     -0.000215293561
  43      0.003401983522
  44     -0.017429420861
  45      0.033962591249
  46      0.052445499182
  47      0.004936882427
  48     -0.337518748665
  49     -0.516064342684
  50     -0.037575680440
  51      0.005275941461
  52      0.025810478244
  53      0.038136839392
  54      0.007933699697
  55     -0.000056892826
  56      0.000033094141
  57     -0.002148975051
  58      0.016979790447
  59     -0.034472010964
  60     -0.052418251936
  61     -0.003839758136
  62      0.336509174184
  63      0.515985977633
  64      0.045863847996
  65      0.005254585762
  66      0.022488738056
  67      0.035570293811
  68     -0.015372364635
  69     -0.009379273011
  70      0.127751829809
  71      0.192536234445
  72     -0.018127236499
  73     -0.091541907430
  74      0.086953982689
  75     -0.125801873204
  76     -0.189910486195
  77     -0.068344382712
  78     -0.044709395035
  79     -0.096802228739
  80      0.126011013314
  81      0.189033542524
  82      0.091062274866
  83      0.041643060936
  84     -0.074841190990
  85     -0.128706081885
  86     -0.191744707800
  87     -0.005643553947
  88      0.092004851809
  89      0.086338525707
 Ene=   0.12963376939698E+01
 Spin= Alpha
 Occup=    0.000000
   1     -0.000010612435
   2     -0.000005769716
   3      0.000060766721
   4      0.000077036298
   5     -0.000042256250
   6     -0.000195853144
   7     -0.000004027879
   8      0.001681802536
   9     -0.000171446582
  10      0.000569731160
  11      0.000734143577
  12      0.000072463312
  13     -0.000392396306
  14     -0.000528671725
  15     -0.000046724321
  16     -0.002455187866
  17     -0.003085761606
  18     -0.000316098781
  19      0.003279393246
  20      0.004106544808
  21      0.000415774240
  22     -0.003370340107
  23     -0.000372882828
  24     -0.000480389381
  25     -0.008093475860
  26     -0.001399918351
  27      0.004293722732
  28      0.000907214436
  29      0.000833574331
  30      0.013346966197
  31      0.002869766178
  32      0.001533436244
  33      0.000536245421
  34      0.000204866695
  35     -0.000001256856
  36     -0.000003250807
  37      0.000006502620
  38     -0.000010525712
  39     -0.000001590992
  40     -0.000056267940
  41      0.000008515287
  42     -0.000135097666
  43      0.001514697012
  44     -0.003117000690
  45      0.000698603665
  46      0.001171953015
  47      0.000092597526
  48     -0.001847741136
  49     -0.003708888766
  50     -0.000508117501
  51     -0.000496402216
  52      0.000130550810
  53     -0.000066693569
  54      0.002733298157
  55      0.000798360984
  56     -0.000122671499
  57      0.001444904326
  58     -0.003199996506
  59      0.000746139269
  60      0.001243514310
  61      0.000114517093
  62     -0.001834114874
  63     -0.003690112043
  64      0.000022804705
  65     -0.000310650458
  66      0.000864797897
  67      0.000366993827
  68      0.002547897827
  69      0.000713202357
  70      0.001033095513
  71      0.002751209390
  72      0.004042480874
  73     -0.004716198828
  74      0.001307632020
  75     -0.000340711839
  76     -0.001250400456
  77     -0.005525941478
  78      0.001099910793
  79     -0.002057771715
  80     -0.000289881893
  81     -0.001210102467
  82     -0.005816831433
  83      0.001194114586
  84      0.000467514046
  85      0.001027052106
  86      0.002714404942
  87      0.004138396223
  88     -0.004630065060
  89     -0.000004053135
 Ene=   0.13139586868776E+01
 Spin= Alpha
 Occup=    0.000000
   1     -0.000008424278
   2     -0.000005949064
   3      0.000178904756
   4      0.000333018632
   5     -0.000325296296
   6     -0.000628649571
   7      0.000954223392
   8     -0.005324102409
   9      0.001000204606
  10      0.019068612431
  11      0.029212187688
  12      0.002771053390
  13     -0.013069949209
  14     -0.020889392777
  15     -0.001937128166
  16     -0.082080757229
  17     -0.124959945035
  18     -0.011948002066
  19      0.110103649747
  20      0.169600323261
  21      0.016183800911
  22     -0.006896196639
  23     -0.042239763348
  24     -0.019922973653
  25     -0.296315793102
  26     -0.125253191411
  27      0.011157218739
  28      0.066724407647
  29      0.031519876369
  30      0.468274490334
  31      0.199940321477