 Entering Link 1 = D:\Gaussian16W\G16W\l1.exe PID=     21672.
  
 Copyright (c) 1988,1990,1992,1993,1995,1998,2003,2009,2016,
            Gaussian, Inc.  All Rights Reserved.
  
 This is part of the Gaussian(R) 16 program.  It is based on
 the Gaussian(R) 09 system (copyright 2009, Gaussian, Inc.),
 the Gaussian(R) 03 system (copyright 2003, Gaussian, Inc.),
 the Gaussian(R) 98 system (copyright 1998, Gaussian, Inc.),
 the Gaussian(R) 94 system (copyright 1995, Gaussian, Inc.),
 the Gaussian 92(TM) system (copyright 1992, Gaussian, Inc.),
 the Gaussian 90(TM) system (copyright 1990, Gaussian, Inc.),
 the Gaussian 88(TM) system (copyright 1988, Gaussian, Inc.),
 the Gaussian 86(TM) system (copyright 1986, Carnegie Mellon
 University), and the Gaussian 82(TM) system (copyright 1983,
 Carnegie Mellon University). Gaussian is a federally registered
 trademark of Gaussian, Inc.
  
 This software contains proprietary and confidential information,
 including trade secrets, belonging to Gaussian, Inc.
  
 This software is provided under written license and may be
 used, copied, transmitted, or stored only in accord with that
 written license.
  
 The following legend is applicable only to US Government
 contracts under FAR:
  
                    RESTRICTED RIGHTS LEGEND
  
 Use, reproduction and disclosure by the US Government is
 subject to restrictions as set forth in subparagraphs (a)
 and (c) of the Commercial Computer Software - Restricted
 Rights clause in FAR 52.227-19.
  
 Gaussian, Inc.
 340 Quinnipiac St., Bldg. 40, Wallingford CT 06492
  
  
 ---------------------------------------------------------------
 Warning -- This program may not be used in any manner that
 competes with the business of Gaussian, Inc. or will provide
 assistance to any competitor of Gaussian, Inc.  The licensee
 of this program is prohibited from giving any competitor of
 Gaussian, Inc. access to this program.  By using this program,
 the user acknowledges that Gaussian, Inc. is engaged in the
 business of creating and licensing software in the field of
 computational chemistry and represents and warrants to the
 licensee that it is not a competitor of Gaussian, Inc. and that
 it will not use this program in any manner prohibited above.
 ---------------------------------------------------------------
  

 Cite this work as:
 Gaussian 16, Revision A.03,
 M. J. Frisch, G. W. Trucks, H. B. Schlegel, G. E. Scuseria, 
 M. A. Robb, J. R. Cheeseman, G. Scalmani, V. Barone, 
 G. A. Petersson, H. Nakatsuji, X. Li, M. Caricato, A. V. Marenich, 
 J. Bloino, B. G. Janesko, R. Gomperts, B. Mennucci, H. P. Hratchian, 
 J. V. Ortiz, A. F. Izmaylov, J. L. Sonnenberg, D. Williams-Young, 
 F. Ding, F. Lipparini, F. Egidi, J. Goings, B. Peng, A. Petrone, 
 T. Henderson, D. Ranasinghe, V. G. Zakrzewski, J. Gao, N. Rega, 
 G. Zheng, W. Liang, M. Hada, M. Ehara, K. Toyota, R. Fukuda, 
 J. Hasegawa, M. Ishida, T. Nakajima, Y. Honda, O. Kitao, H. Nakai, 
 T. Vreven, K. Throssell, J. A. Montgomery, Jr., J. E. Peralta, 
 F. Ogliaro, M. J. Bearpark, J. J. Heyd, E. N. Brothers, K. N. Kudin, 
 V. N. Staroverov, T. A. Keith, R. Kobayashi, J. Normand, 
 K. Raghavachari, A. P. Rendell, J. C. Burant, S. S. Iyengar, 
 J. Tomasi, M. Cossi, J. M. Millam, M. Klene, C. Adamo, R. Cammi, 
 J. W. Ochterski, R. L. Martin, K. Morokuma, O. Farkas, 
 J. B. Foresman, and D. J. Fox, Gaussian, Inc., Wallingford CT, 2016.
 
 ******************************************
 Gaussian 16:  EM64W-G16RevA.03 17-Dec-2016
                13-Jan-2025 
 ******************************************
 %mem=1500MB
 %nprocshared=4
 Will use up to    4 processors via shared memory.
 %chk=E:\TRESC\examples\FeO\Gaussian\Scratch\FeO.chk
 ---------------------------------------------------------------
 # uhf/gen 6d 10f nosymm iop(3/32=2,3/27=9) int=nobasistransform
 ---------------------------------------------------------------
 1/38=1,172=1/1;
 2/12=2,15=1,17=6,18=5,40=1/2;
 3/5=7,8=22,11=2,25=1,27=9,30=1,32=2,60=-1,116=2/1,2,3;
 4//1;
 5/5=2,38=5/2;
 6/7=2,8=2,9=2,10=2,28=1/1;
 99/5=1,9=1/99;
 ---
 FeO
 ---
 Symbolic Z-matrix:
 Charge =  0 Multiplicity = 1
 Fe                    6.75742   0.43591  -1.2046 
 O                     8.57742   0.43591  -1.2046 
 
                          Input orientation:                          
 ---------------------------------------------------------------------
 Center     Atomic      Atomic             Coordinates (Angstroms)
 Number     Number       Type             X           Y           Z
 ---------------------------------------------------------------------
      1         26           0        6.757421    0.435905   -1.204599
      2          8           0        8.577421    0.435905   -1.204599
 ---------------------------------------------------------------------
 Symmetry turned off by external request.
 Stoichiometry    FeO
 Framework group  C*V[C*(OFe)]
 Deg. of freedom     1
 Full point group                 C*V     NOp   4
 Rotational constants (GHZ):           0.0000000          12.2664390          12.2664390
 General basis read from cards:  (6D, 10F)
    61 basis functions,   106 primitive gaussians,    61 cartesian basis functions
    17 alpha electrons       17 beta electrons
       nuclear repulsion energy        60.4773955337 Hartrees.
 NAtoms=    2 NActive=    2 NUniq=    2 SFac= 1.00D+00 NAtFMM=   60 NAOKFM=F Big=F
 Integral buffers will be    131072 words long.
 Raffenetti 2 integral format.
 Two-electron integral symmetry is turned off.
 One-electron integrals computed using PRISM.
 NBasis=    61 RedAO= F EigKep=  0.00D+00  NBF=    61
 NBsUse=    61 1.00D-04 EigRej=  0.00D+00 NBFU=    61
 GSVD:  LWork=       -4209 too small for GESVD, short by       19520 words or       19520 for optimal perf.
 ExpMin= 3.37D-02 ExpMax= 6.09D+04 ExpMxC= 9.15D+03 IAcc=3 IRadAn=         5 AccDes= 0.00D+00
 Harris functional with IExCor=  205 and IRadAn=       5 diagonalized for initial guess.
 HarFok:  IExCor=  205 AccDes= 0.00D+00 IRadAn=         5 IDoV= 1 UseB2=F ITyADJ=14
 ICtDFT=  3500011 ScaDFX=  1.000000  1.000000  1.000000  1.000000
 FoFCou: FMM=F IPFlag=           0 FMFlag=      100000 FMFlg1=           0
         NFxFlg=           0 DoJE=T BraDBF=F KetDBF=T FulRan=T
         wScrn=  0.000000 ICntrl=       500 IOpCl=  0 I1Cent=   200000004 NGrid=           0
         NMat0=    1 NMatS0=      1 NMatT0=    0 NMatD0=    1 NMtDS0=    0 NMtDT0=    0
 Symmetry not used in FoFCou.
 Initial guess <Sx>= 0.0000 <Sy>= 0.0000 <Sz>= 0.0000 <S**2>= 0.0000 S= 0.0000
 Keep R1 and R2 ints in memory in canonical form, NReq=5537450.
 Requested convergence on RMS density matrix=1.00D-08 within 128 cycles.
 Requested convergence on MAX density matrix=1.00D-06.
 Requested convergence on             energy=1.00D-06.
 No special actions if energy rises.
 GSVD:  LWork=       -4209 too small for GESVD, short by       19520 words or       19520 for optimal perf.
 SCF Done:  E(UHF) =  -1334.71860174     A.U. after   23 cycles
            NFock= 23  Conv=0.97D-08     -V/T= 1.9967
 <Sx>= 0.0000 <Sy>= 0.0000 <Sz>= 0.0000 <S**2>= 0.0000 S= 0.0000
 <L.S>= 0.000000000000E+00
 Annihilation of the first spin contaminant:
 S**2 before annihilation     0.0000,   after     0.0000

 **********************************************************************

            Population analysis using the SCF density.

 **********************************************************************

 Alpha  occ. eigenvalues -- -260.53218 -31.80168 -27.43543 -27.43282 -27.42915
 Alpha  occ. eigenvalues --  -20.43512  -4.15717  -2.75622  -2.75503  -2.74944
 Alpha  occ. eigenvalues --   -1.05134  -0.60647  -0.58698  -0.58071  -0.34507
 Alpha  occ. eigenvalues --   -0.33970  -0.30737
 Alpha virt. eigenvalues --   -0.01929   0.13592   0.15376   0.17279   0.18245
 Alpha virt. eigenvalues --    0.22589   0.38512   0.72101   1.18101   1.18188
 Alpha virt. eigenvalues --    1.20309   1.26277   1.27684   1.43911   1.44495
 Alpha virt. eigenvalues --    1.47521   1.48651   1.50020   1.57243   1.71212
 Alpha virt. eigenvalues --    3.14936   3.14938   3.19959   3.19980   3.38486
 Alpha virt. eigenvalues --    3.52381   4.42865   4.44956   4.45103   4.47094
 Alpha virt. eigenvalues --    4.47756   4.49244   4.59815   5.76101   5.77713
 Alpha virt. eigenvalues --    5.98506   6.66985  15.38829  15.39585  15.49751
 Alpha virt. eigenvalues --   15.67443  31.55945  60.18757 698.10477
  Beta  occ. eigenvalues -- -260.53218 -31.80168 -27.43543 -27.43282 -27.42915
  Beta  occ. eigenvalues --  -20.43512  -4.15717  -2.75622  -2.75503  -2.74944
  Beta  occ. eigenvalues --   -1.05134  -0.60647  -0.58698  -0.58071  -0.34507
  Beta  occ. eigenvalues --   -0.33970  -0.30737
  Beta virt. eigenvalues --   -0.01929   0.13592   0.15376   0.17279   0.18245
  Beta virt. eigenvalues --    0.22589   0.38512   0.72101   1.18101   1.18188
  Beta virt. eigenvalues --    1.20309   1.26277   1.27684   1.43911   1.44495
  Beta virt. eigenvalues --    1.47521   1.48651   1.50020   1.57243   1.71212
  Beta virt. eigenvalues --    3.14936   3.14938   3.19959   3.19980   3.38486
  Beta virt. eigenvalues --    3.52381   4.42865   4.44956   4.45103   4.47094
  Beta virt. eigenvalues --    4.47756   4.49244   4.59815   5.76101   5.77713
  Beta virt. eigenvalues --    5.98506   6.66985  15.38829  15.39585  15.49751
  Beta virt. eigenvalues --   15.67443  31.55945  60.18757 698.10477
          Condensed to atoms (all electrons):
               1          2
     1  Fe  24.890354   0.307682
     2  O    0.307682   8.494282
          Atomic-Atomic Spin Densities.
               1          2
     1  Fe   0.000000   0.000000
     2  O    0.000000   0.000000
 Mulliken charges and spin densities:
               1          2
     1  Fe   0.801964   0.000000
     2  O   -0.801964   0.000000
 Sum of Mulliken charges =   0.00000   0.00000
 Mulliken charges and spin densities with hydrogens summed into heavy atoms:
               1          2
     1  Fe   0.801964   0.000000
     2  O   -0.801964   0.000000
 Electronic spatial extent (au):  <R**2>=           6672.2077
 Charge=              0.0000 electrons
 Dipole moment (field-independent basis, Debye):
    X=             -8.1428    Y=              0.0000    Z=              0.0000  Tot=              8.1428
 Quadrupole moment (field-independent basis, Debye-Ang):
   XX=           -140.2155   YY=            -18.3351   ZZ=            -18.2252
   XY=             -3.5495   XZ=              9.8088   YZ=             -0.5185
 Traceless Quadrupole moment (field-independent basis, Debye-Ang):
   XX=            -81.2902   YY=             40.5902   ZZ=             40.7001
   XY=             -3.5495   XZ=              9.8088   YZ=             -0.5185
 Octapole moment (field-independent basis, Debye-Ang**2):
  XXX=          -1783.1784  YYY=            -23.9771  ZZZ=             65.8621  XYY=           -138.0413
  XXY=            -61.1207  XXZ=            168.9035  XZZ=           -147.5552  YZZ=             -6.6954
  YYZ=             21.6344  XYZ=              0.7155
 Hexadecapole moment (field-independent basis, Debye-Ang**3):
 XXXX=         -20005.9998 YYYY=            -38.4309 ZZZZ=           -175.9924 XXXY=           -777.2969
 XXXZ=           2148.0158 YYYX=           -179.1700 YYYZ=             28.1168 ZZZX=            504.7686
 ZZZY=             25.9321 XXYY=          -1061.3504 XXZZ=          -1233.0338 YYZZ=            -34.6307
 XXYZ=             49.3981 YYXZ=            163.1807 ZZXY=            -55.7430
 N-N= 6.047739553371D+01 E-N=-3.306958546540D+03  KE= 1.339170320769D+03
                          Isotropic Fermi Contact Couplings
        Atom                 a.u.       MegaHertz       Gauss      10(-4) cm-1
     1  Fe(57)             0.00000       0.00000       0.00000       0.00000
     2  O(17)              0.00000       0.00000       0.00000       0.00000
 --------------------------------------------------------
       Center         ----  Spin Dipole Couplings  ----
                      3XX-RR        3YY-RR        3ZZ-RR
 --------------------------------------------------------
     1   Atom        0.000000      0.000000      0.000000
     2   Atom        0.000000      0.000000      0.000000
 --------------------------------------------------------
                        XY            XZ            YZ
 --------------------------------------------------------
     1   Atom        0.000000      0.000000      0.000000
     2   Atom        0.000000      0.000000      0.000000
 --------------------------------------------------------


 ---------------------------------------------------------------------------------
              Anisotropic Spin Dipole Couplings in Principal Axis System
 ---------------------------------------------------------------------------------

       Atom             a.u.   MegaHertz   Gauss  10(-4) cm-1        Axes

              Baa     0.0000     0.000     0.000     0.000  1.0000  0.0000  0.0000
     1 Fe(57) Bbb     0.0000     0.000     0.000     0.000  0.0000  1.0000  0.0000
              Bcc     0.0000     0.000     0.000     0.000  0.0000  0.0000  1.0000
 
              Baa     0.0000     0.000     0.000     0.000  1.0000  0.0000  0.0000
     2 O(17)  Bbb     0.0000     0.000     0.000     0.000  0.0000  1.0000  0.0000
              Bcc     0.0000     0.000     0.000     0.000  0.0000  0.0000  1.0000
 

 ---------------------------------------------------------------------------------


 Test job not archived.
 1|1|UNPC-BATCOMPUTER|SP|UHF|Gen|Fe1O1|DELL|13-Jan-2025|0||# uhf/gen 6d
  10f nosymm iop(3/32=2,3/27=9) int=nobasistransform||FeO||0,1|Fe,0,6.7
 574207,0.43590531,-1.20459949|O,0,8.5774207,0.43590531,-1.20459949||Ve
 rsion=EM64W-G16RevA.03|HF=-1334.7186017|S2=0.|S2-1=0.|S2A=0.|RMSD=9.74
 0e-009|Dipole=-3.2036177,0.,0.|Quadrupole=-60.4373,30.177803,30.259497
 1,-2.6389533,7.2925972,-0.3854595|PG=C*V [C*(O1Fe1)]||@


 THERE'S NOTHING WRONG WITH FOLLOWING A TRAIN OF THOUGHT...
 AS LONG AS IT ULTIMATELY PULLS INTO THE STATION.
 Job cpu time:       0 days  0 hours  0 minutes  4.0 seconds.
 Elapsed time:       0 days  0 hours  0 minutes  3.0 seconds.
 File lengths (MBytes):  RWF=      6 Int=      0 D2E=      0 Chk=      1 Scr=      1
 Normal termination of Gaussian 16 at Mon Jan 13 12:56:02 2025.
