[Molden Format]
[Atoms] (AU)
FE   1   26           0.0831147128        -0.5953240292         0.0221015778
O    2    8           0.3489071490        -0.7811031935         5.6182798340
C    3    6           0.2409387806        -0.6731431400         3.4507756844
C    4    6          -0.0117053191        -0.9606031759        -3.3902636253
O    5    8          -0.0630380286        -1.2499368753        -5.5431762546
C    6    6          -3.1143665201         0.4175610482         0.0976584975
O    7    8          -5.0774081611         1.3815989730         0.1295206028
C    8    6           2.8807195040         1.2473301523        -0.1591872193
O    9    8           4.5041943678         2.7079499304        -0.2811516552
[GTO]
  1 0
 s    6  1.00
    60923.6406430000         0.0014302254
     9147.8893982000         0.0109587900
     2081.3505927000         0.0543325542
      587.5597706700         0.1888499501
      191.0904399000         0.3825306995
       65.7327301120         0.2930833598
 s    3  1.00
      127.2589192800        -0.1096456493
       14.8309130100         0.6438763133
        6.0653307408         0.4547234732
 s    3  1.00
       10.4499437100        -0.2253963995
        1.7245228003         0.7216439816
        0.7177217732         0.4498549292
 s    1  1.00
        0.0914498283         1.0000000000
 s    1  1.00
        0.0337066910         1.0000000000
 p    5  1.00
      773.4375099500         0.0094325735
      182.1514971400         0.0700296206
       57.5472727580         0.2699365200
       20.6149889350         0.5270001105
        7.6348557890         0.3428414803
 p    3  1.00
        3.8719327990         0.3397440299
        1.4924724132         0.5684259401
        0.5606128496         0.2364936584
 p    1  1.00
        0.1349150000         1.0000000000
 d    4  1.00
       38.9681334190         0.0278796644
       10.8000670780         0.1485831998
        3.6136457999         0.3690547950
        1.2129967888         0.4774510088
 d    1  1.00
        0.3652439317         1.0000000000
 f    1  1.00
        1.5980000000         1.0000000000

  2 0
 s    5  1.00
     2266.1767785000        -0.0053431810
      340.8701019100        -0.0398900392
       77.3631351670        -0.1785391199
       21.4796449400        -0.4642768496
        6.6589433124        -0.4430974517
 s    1  1.00
        0.8097597567         1.0000000000
 s    1  1.00
        0.2553077223         1.0000000000
 p    3  1.00
       17.7215043170         0.0433945732
        3.8635505440         0.2309412077
        1.0480920883         0.5137531106
 p    1  1.00
        0.2764154441         1.0000000000
 d    1  1.00
        1.2000000000         1.0000000000

  3 0
 s    5  1.00
     1238.4016938000         0.0054568832
      186.2900499200         0.0406384092
       42.2511763460         0.1802559389
       11.6765579320         0.4631512175
        3.5930506482         0.4408717331
 s    1  1.00
        0.4024514736         1.0000000000
 s    1  1.00
        0.1309018267         1.0000000000
 p    3  1.00
        9.4680970621         0.0383878717
        2.0103545142         0.2111702511
        0.5477100471         0.5132817211
 p    1  1.00
        0.1526861379         1.0000000000
 d    1  1.00
        0.8000000000         1.0000000000

  4 0
 s    5  1.00
     1238.4016938000         0.0054568832
      186.2900499200         0.0406384092
       42.2511763460         0.1802559389
       11.6765579320         0.4631512175
        3.5930506482         0.4408717331
 s    1  1.00
        0.4024514736         1.0000000000
 s    1  1.00
        0.1309018267         1.0000000000
 p    3  1.00
        9.4680970621         0.0383878717
        2.0103545142         0.2111702511
        0.5477100471         0.5132817211
 p    1  1.00
        0.1526861379         1.0000000000
 d    1  1.00
        0.8000000000         1.0000000000

  5 0
 s    5  1.00
     2266.1767785000        -0.0053431810
      340.8701019100        -0.0398900392
       77.3631351670        -0.1785391199
       21.4796449400        -0.4642768496
        6.6589433124        -0.4430974517
 s    1  1.00
        0.8097597567         1.0000000000
 s    1  1.00
        0.2553077223         1.0000000000
 p    3  1.00
       17.7215043170         0.0433945732
        3.8635505440         0.2309412077
        1.0480920883         0.5137531106
 p    1  1.00
        0.2764154441         1.0000000000
 d    1  1.00
        1.2000000000         1.0000000000

  6 0
 s    5  1.00
     1238.4016938000         0.0054568832
      186.2900499200         0.0406384092
       42.2511763460         0.1802559389
       11.6765579320         0.4631512175
        3.5930506482         0.4408717331
 s    1  1.00
        0.4024514736         1.0000000000
 s    1  1.00
        0.1309018267         1.0000000000
 p    3  1.00
        9.4680970621         0.0383878717
        2.0103545142         0.2111702511
        0.5477100471         0.5132817211
 p    1  1.00
        0.1526861379         1.0000000000
 d    1  1.00
        0.8000000000         1.0000000000

  7 0
 s    5  1.00
     2266.1767785000        -0.0053431810
      340.8701019100        -0.0398900392
       77.3631351670        -0.1785391199
       21.4796449400        -0.4642768496
        6.6589433124        -0.4430974517
 s    1  1.00
        0.8097597567         1.0000000000
 s    1  1.00
        0.2553077223         1.0000000000
 p    3  1.00
       17.7215043170         0.0433945732
        3.8635505440         0.2309412077
        1.0480920883         0.5137531106
 p    1  1.00
        0.2764154441         1.0000000000
 d    1  1.00
        1.2000000000         1.0000000000

  8 0
 s    5  1.00
     1238.4016938000         0.0054568832
      186.2900499200         0.0406384092
       42.2511763460         0.1802559389
       11.6765579320         0.4631512175
        3.5930506482         0.4408717331
 s    1  1.00
        0.4024514736         1.0000000000
 s    1  1.00
        0.1309018267         1.0000000000
 p    3  1.00
        9.4680970621         0.0383878717
        2.0103545142         0.2111702511
        0.5477100471         0.5132817211
 p    1  1.00
        0.1526861379         1.0000000000
 d    1  1.00
        0.8000000000         1.0000000000

  9 0
 s    5  1.00
     2266.1767785000        -0.0053431810
      340.8701019100        -0.0398900392
       77.3631351670        -0.1785391199
       21.4796449400        -0.4642768496
        6.6589433124        -0.4430974517
 s    1  1.00
        0.8097597567         1.0000000000
 s    1  1.00
        0.2553077223         1.0000000000
 p    3  1.00
       17.7215043170         0.0433945732
        3.8635505440         0.2309412077
        1.0480920883         0.5137531106
 p    1  1.00
        0.2764154441         1.0000000000
 d    1  1.00
        1.2000000000         1.0000000000

[5D7F]
[9G]

[MO]
 Sym= A
 Ene=        -2.5639161990e+02
 Spin= Alpha
 Occup=         1.0000000000e+00
  1         9.9547918562e-01
  2         1.4534454648e-02
  3        -3.4289390111e-03
  4         4.7832302494e-03
  5        -5.0688367115e-04
  6        -2.6879265216e-06
  7         1.9225697154e-05
  8        -7.1242043499e-07
  9         1.0984807218e-05
 10        -7.8563513805e-05
 11         2.9098425187e-06
 12        -1.7684041252e-04
 13         1.2623747463e-03
 14        -4.6661912729e-05
 15        -3.8242165619e-05
 16         8.8701272170e-07
 17        -4.9194203375e-06
 18        -6.7989757074e-05
 19        -1.9409159995e-05
 20         9.2491865991e-05
 21        -9.8274798813e-06
 22         1.6803636401e-05
 23         3.2092233564e-04
 24         9.1361030230e-05
 25         1.3789174589e-06
 26         2.2922370329e-06
 27        -1.5206889822e-05
 28         2.4974691734e-07
 29        -2.6734301234e-06
 30        -1.2407808710e-05
 31         2.8279757626e-05
 32        -1.7679397648e-05
 33        -2.0265864514e-04
 34         8.0164388967e-04
 35        -4.7435528821e-07
 36        -1.1009262577e-06
 37        -1.4659523140e-05
 38        -1.1014772178e-05
 39        -7.5681441652e-07
 40        -2.5888102055e-04
 41         5.0518246705e-05
 42         2.9540067640e-06
 43         5.7523704753e-06
 44         1.8488377914e-07
 45         2.8622631961e-07
 46         4.5037412921e-05
 47        -3.9292720562e-04
 48        -9.4020179992e-04
 49         8.1515037076e-06
 50        -4.2768533038e-05
 51         5.2057761445e-05
 52        -1.3212588523e-05
 53         2.9607923805e-05
 54        -2.1296611830e-04
 55        -7.9282900081e-05
 56        -1.2982861997e-05
 57         4.4503066345e-05
 58         1.9890949008e-05
 59         7.6423553660e-06
 60         4.5047052541e-05
 61        -3.9305240769e-04
 62        -9.3998604128e-04
 63         4.4151500548e-06
 64        -4.7036679432e-05
 65        -4.8778356269e-05
 66         2.4672683835e-06
 67         4.7526940046e-05
 68         2.1022009309e-04
 69        -7.2980276675e-05
 70         1.0629208930e-06
 71        -5.4203595031e-05
 72         2.4563899889e-05
 73         4.5994061878e-06
 74        -1.7678410582e-05
 75        -2.0264865347e-04
 76         8.0163051153e-04
 77         6.1141899159e-07
 78         1.4371929191e-07
 79         1.4696141582e-05
 80         8.0193773131e-06
 81         2.0882184147e-05
 82         2.5813913636e-04
 83         5.0785454472e-05
 84         3.4913985341e-06
 85         1.6356890870e-06
 86         3.7832091783e-07
 87         1.5649328886e-07
 88         1.9455919818e-05
 89        -3.8286188840e-05
 90        -1.9739372910e-03
 91         1.0270818522e-05
 92         2.2438931350e-05
 93        -1.3241427011e-06
 94        -8.4485622500e-04
 95        -1.0111614222e-04
 96         3.5552158664e-05
 97         5.4524653586e-05
 98         2.6605506415e-06
 99         1.5980641712e-07
100        -4.1529222648e-05
101         5.6222881835e-05
102        -1.4777877373e-05
103        -1.6099900237e-04
104         4.3558872793e-04
105        -9.5531653971e-06
106        -2.5603512926e-05
107         1.4367985243e-06
108         2.7106821941e-04
109         4.4978694434e-05
110        -1.1935003843e-05
111        -2.2945794567e-05
112        -2.0714236527e-06
113         8.2432791239e-07
114         4.0602769296e-05
115        -2.1350959629e-05
116         1.9474552166e-05
117        -3.8518922907e-05
118        -1.9738332095e-03
119        -1.6016373022e-05
120         1.8815960534e-05
121        -1.7013204909e-07
122         8.4014944668e-04
123         1.3179276996e-04
124        -3.6672112840e-05
125         5.4181613869e-05
126         6.6244357318e-06
127         6.3031760757e-06
128        -5.8476571314e-06
129        -6.9362414415e-05
130        -1.4786425870e-05
131        -1.6109701229e-04
132         4.3605153889e-04
133         1.6222980388e-05
134        -2.2032559916e-05
135         3.3275419716e-07
136        -2.7319449121e-04
137        -3.0421849458e-05
138         1.1409210689e-05
139        -2.2776647941e-05
140        -4.0063264402e-06
141        -2.1534122375e-06
142         2.3358251121e-05
143         3.9390775219e-05
 Sym= A
 Ene=        -3.0172947253e+01
 Spin= Alpha
 Occup=         1.0000000000e+00
  1         3.3482872474e-01
  2        -1.0438322813e+00
  3        -1.8770237274e-02
  4         1.3627370832e-02
  5        -1.4918176323e-03
  6        -3.1979897747e-06
  7         2.1063480978e-05
  8        -6.8221379754e-07
  9         3.4095684036e-05
 10        -2.4405510655e-04
 11         9.0468753170e-06
 12        -4.8020514256e-04
 13         3.4280388457e-03
 14        -1.2665115212e-04
 15        -5.1342788741e-04
 16        -1.2402028549e-05
 17        -5.0579033496e-05
 18        -4.1795213731e-04
 19        -1.2018326366e-04
 20         4.9042802264e-04
 21        -1.3401088278e-05
 22         6.4394356456e-05
 23         9.1322022062e-04
 24         2.6065181400e-04
 25         3.0392773949e-06
 26         5.0291992886e-06
 27        -3.3521312454e-05
 28         7.9175708923e-07
 29        -5.3726823061e-06
 30        -2.3984445214e-05
 31         5.4692216284e-05
 32        -5.7900533867e-05
 33        -6.8281397210e-04
 34         2.5850100979e-03
 35         3.0670956547e-07
 36        -5.1364356519e-06
 37        -9.6308020012e-06
 38        -3.5177861054e-05
 39         1.1923942018e-06
 40        -8.1511534759e-04
 41         1.2652701775e-04
 42         6.9249686060e-06
 43         1.7668981201e-05
 44         8.7791377808e-07
 45         9.7978804632e-07
 46         1.2633717657e-04
 47        -1.2145113599e-03
 48        -2.8109874514e-03
 49         2.5107634038e-05
 50        -1.2503769121e-04
 51         1.8197702567e-04
 52        -4.8667977328e-05
 53         9.8126765033e-05
 54        -8.1940017820e-04
 55        -1.4891315172e-04
 56        -3.0546080369e-05
 57         1.2397772519e-04
 58         4.9357633910e-05
 59         1.9546437453e-05
 60         1.2636542240e-04
 61        -1.2148859329e-03
 62        -2.8102863504e-03
 63         1.1981039756e-05
 64        -1.4001755629e-04
 65        -1.7229985442e-04
 66         1.1632426733e-05
 67         1.6698202984e-04
 68         8.0997280207e-04
 69        -1.3198785796e-04
 70         7.1310280471e-06
 71        -1.4094927328e-04
 72         6.1899472522e-05
 73         1.1377465941e-05
 74        -5.7898220640e-05
 75        -6.8278858437e-04
 76         2.5849866231e-03
 77         1.0442438860e-06
 78        -4.2755162731e-06
 79         9.9783875758e-06
 80         2.4746872911e-05
 81         6.9328865268e-05
 82         8.1251589950e-04
 83         1.2760571617e-04
 84         9.1925957339e-06
 85         9.0177483981e-07
 86         1.6672393145e-06
 87         4.5528642023e-07
 88         4.0992523428e-05
 89        -1.4056260586e-04
 90        -5.5467209353e-03
 91         3.6546179724e-05
 92         6.5023179471e-05
 93        -4.0920169515e-06
 94        -2.0527748996e-03
 95        -3.8694224792e-04
 96         9.2371743669e-05
 97         7.0406479638e-05
 98         1.4771541136e-06
 99         1.3493558498e-06
100        -1.5405056246e-05
101         8.5443456937e-05
102        -5.1859715737e-05
103        -5.7204765035e-04
104         1.5327963851e-03
105        -6.3140655699e-05
106        -4.1990364773e-05
107         4.1134801725e-06
108         7.9680455829e-04
109         8.6018071004e-05
110        -3.3133781696e-05
111        -4.6330553029e-05
112        -5.2141145896e-06
113         2.0286005487e-06
114         9.8915414038e-05
115        -3.3604924503e-05
116         4.1044873416e-05
117        -1.4123891980e-04
118        -5.5463747712e-03
119        -5.2931487295e-05
120         5.2691037522e-05
121        -1.6687293368e-07
122         2.0800255296e-03
123         1.8418732652e-04
124        -8.4806229033e-05
125         6.9957900694e-05
126         6.6859666588e-06
127         9.4536225774e-06
128         3.1747882890e-05
129        -8.0375214295e-05
130        -5.1881288503e-05
131        -5.7230742751e-04
132         1.5340372962e-03
133         7.2270938525e-05
134        -2.3232543725e-05
135        -1.6966632032e-06
136        -7.9033407774e-04
137        -1.3384480377e-04
138         3.4961126026e-05
139        -4.6012522340e-05
140        -8.8435687127e-06
141        -3.5576074272e-06
142         6.6572328649e-05
143         8.0348054118e-05
 Sym= A
 Ene=        -2.6021790310e+01
 Spin= Alpha
 Occup=         1.0000000000e+00
  1        -3.7185173366e-08
  2         1.1378921936e-07
  3        -6.2483772387e-08
  4         1.7056743217e-07
  5        -3.3562369323e-09
  6         3.6581859139e-02
  7         4.1666463734e-02
  8         9.9137601994e-01
  9         7.3102478201e-04
 10         8.3260384440e-04
 11         1.9811265184e-02
 12        -9.0924538935e-04
 13        -1.0343691540e-03
 14        -2.4618713800e-02
 15         1.8664524174e-06
 16         4.3288011652e-06
 17        -2.9356810579e-05
 18         1.3923171735e-06
 19        -9.3628492360e-07
 20        -1.4705223211e-05
 21        -3.3370932112e-05
 22         2.2999607363e-04
 23        -1.0890257498e-05
 24         7.2127317213e-06
 25        -1.0847111363e-04
 26        -1.0971949054e-05
 27        -1.0511182815e-05
 28         1.4285365822e-05
 29         3.4072396215e-06
 30         4.4426496981e-07
 31         9.1489325531e-07
 32         8.1828638639e-06
 33        -5.4740451955e-05
 34         2.9219327661e-03
 35        -8.9701836627e-06
 36        -5.0130122307e-06
 37        -2.2433675546e-04
 38        -1.5292930434e-05
 39         1.1707805125e-04
 40         1.7277134843e-05
 41         1.9641234665e-05
 42         4.1265242169e-06
 43        -1.9687647143e-05
 44         1.2073828688e-06
 45        -5.4571658484e-07
 46         5.2559651133e-05
 47        -6.6340824180e-04
 48         1.2368843670e-02
 49        -1.4926845133e-05
 50         5.8910125036e-05
 51        -1.5872880701e-04
 52        -4.4487613746e-04
 53         1.5947518531e-04
 54        -9.8431103446e-03
 55        -3.0183806491e-04
 56        -2.0323613456e-05
 57         2.2919314749e-06
 58        -5.5424272524e-05
 59        -1.5398279496e-05
 60        -5.2549856006e-05
 61         6.6323599932e-04
 62        -1.2368271371e-02
 63         3.3174999272e-06
 64        -7.2110974903e-05
 65        -1.5395337439e-04
 66        -2.8028748146e-04
 67        -9.8464249162e-04
 68        -9.8010434952e-03
 69         2.9860436273e-04
 70         1.2817230786e-05
 71         4.9477624154e-05
 72         5.2984407017e-05
 73         1.7031812000e-05
 74        -8.1783838185e-06
 75         5.4805363883e-05
 76        -2.9222244621e-03
 77        -7.5959685359e-06
 78        -1.3822799370e-05
 79        -2.2402684012e-04
 80         1.7148213243e-05
 81        -1.1514718672e-04
 82         2.5707287835e-05
 83        -1.6981900746e-05
 84         1.8501255871e-06
 85        -2.2347227189e-05
 86         7.7522220731e-07
 87        -7.5215297782e-07
 88        -9.4952470084e-09
 89         1.5957607958e-07
 90        -2.8676726667e-07
 91         1.1191825065e-05
 92         1.2696106134e-05
 93         3.0195955594e-04
 94         5.6469897150e-05
 95         6.4551112290e-05
 96         1.5359475357e-03
 97        -1.8345392703e-05
 98         3.1540321888e-04
 99        -2.5984306005e-05
100         1.2714942103e-05
101         1.2351347911e-05
102         6.2741991369e-10
103         7.4536998997e-09
104        -3.6079490209e-08
105         4.5945838615e-06
106         5.2313543948e-06
107         1.2460023468e-04
108        -1.9363681389e-05
109        -2.2036092294e-05
110        -5.2509426184e-04
111        -7.2791530743e-08
112         1.5400852998e-06
113        -3.2296442024e-07
114         7.2593515805e-08
115         5.6583240259e-08
116         3.3195440420e-08
117        -6.6767332078e-07
118        -5.3046928646e-07
119         1.1286126336e-05
120         1.2763166493e-05
121         3.0197709351e-04
122         5.6516578047e-05
123         6.4202952973e-05
124         1.5345075368e-03
125         2.7181192036e-05
126        -2.9621964337e-04
127        -1.0957388114e-04
128        -6.3343038120e-06
129        -1.6489863483e-05
130        -2.4288877347e-08
131        -2.7306087143e-07
132         9.7072718764e-07
133         4.6407747114e-06
134         5.2847255888e-06
135         1.2451187291e-04
136        -1.9660855911e-05
137        -2.2307539698e-05
138        -5.2457985488e-04
139         1.4848451472e-07
140        -1.4222445918e-06
141        -7.5460456909e-07
142        -1.2990240000e-08
143        -8.3634310245e-08
 Sym= A
 Ene=        -2.6009036048e+01
 Spin= Alpha
 Occup=         1.0000000000e+00
  1        -1.0275200171e-07
  2         3.1740592934e-07
  3        -1.1318345043e-07
  4        -6.5224122221e-07
  5         3.5978126309e-07
  6        -9.8279836862e-01
  7        -1.3619629194e-01
  8         4.1989517857e-02
  9        -1.9095209688e-02
 10        -2.6461635407e-03
 11         8.1583866142e-04
 12         4.7683158616e-03
 13         6.6047125327e-04
 14        -2.0247380675e-04
 15        -3.0710727186e-07
 16         3.3922839170e-06
 17         5.2312723271e-06
 18         3.0420875546e-05
 19        -1.0715495747e-04
 20         7.5292218902e-07
 21        -6.5438289692e-06
 22        -1.0135304386e-05
 23        -5.9202091474e-05
 24         2.0809551578e-04
 25         5.2654540416e-06
 26        -5.0039003315e-05
 27        -6.6733287107e-06
 28        -1.1661348391e-06
 29        -4.3441257713e-06
 30        -1.9189605490e-05
 31        -8.6675591276e-06
 32        -4.6848580345e-09
 33        -4.6402592876e-08
 34        -1.2429375078e-08
 35        -1.0663827232e-04
 36        -1.4764135487e-05
 37         4.6045606609e-06
 38         5.0250119676e-04
 39         6.9564582417e-05
 40        -2.1640460646e-05
 41         2.2878451169e-06
 42        -3.0709704867e-05
 43        -4.3694904967e-06
 44        -2.0372506140e-06
 45         2.3548500084e-06
 46         2.7413973325e-09
 47        -3.6801953285e-08
 48        -1.1229081909e-06
 49        -2.8575759836e-05
 50        -3.9875913626e-06
 51         1.2628703955e-06
 52        -1.2278121326e-03
 53        -1.7000606617e-04
 54         5.3292366227e-05
 55        -9.0225194374e-06
 56         1.2163995429e-04
 57         1.7448198474e-05
 58         8.7951689264e-06
 59        -1.1911835577e-05
 60         2.8649881290e-08
 61        -3.2514883129e-07
 62        -3.5796010012e-08
 63        -2.8655322099e-05
 64        -4.0053694260e-06
 65         1.1920585829e-06
 66        -1.2276110473e-03
 67        -1.6992747744e-04
 68         5.3128551570e-05
 69         8.9180681948e-06
 70        -1.2054995837e-04
 71        -1.5739429482e-05
 72         1.2370408672e-06
 73        -2.3352070317e-05
 74        -1.6846405257e-08
 75        -2.1196187927e-07
 76         9.7241932328e-07
 77        -1.0662326857e-04
 78        -1.4772155655e-05
 79         4.5177692066e-06
 80         5.0241917822e-04
 81         6.9628121951e-05
 82        -2.1104632642e-05
 83        -2.2334639450e-06
 84         3.0461329655e-05
 85         4.0044601584e-06
 86        -1.3416545901e-07
 87         5.2384721901e-06
 88        -4.0299807270e-05
 89         1.3047974554e-03
 90         1.6405586528e-03
 91         1.9565209476e-04
 92         2.2569017576e-05
 93        -8.1796417302e-06
 94        -2.1963683435e-03
 95         2.3096240769e-04
 96         7.1161297017e-05
 97         2.7670749530e-04
 98         2.1175822827e-05
 99        -1.1892205777e-05
100        -4.7103752719e-04
101         3.3168863457e-04
102         8.9200732084e-05
103         9.4684357170e-04
104        -2.9369623097e-03
105         1.4371685812e-04
106        -1.8922715657e-04
107         2.6608014807e-06
108        -5.1260355302e-04
109         6.5800862123e-04
110        -8.7216214425e-06
111        -3.3630277832e-05
112        -9.0266730843e-07
113         6.6769433560e-07
114         2.7606726631e-05
115        -5.3360163601e-05
116         4.0266907533e-05
117        -1.3049499945e-03
118        -1.6395746818e-03
119         1.9438395789e-04
120         3.1477985689e-05
121        -8.5061572783e-06
122        -2.0498034754e-03
123        -8.1962086557e-04
124         1.1017849234e-04
125        -2.7444338944e-04
126        -4.8359394898e-05
127        -3.0157491992e-05
128         2.2698754211e-04
129         5.2864234767e-04
130        -8.9210540322e-05
131        -9.4689757288e-04
132         2.9369939175e-03
133         8.6317810413e-05
134         2.2113075571e-04
135        -1.2604352115e-05
136        -3.1229516833e-04
137        -7.7205856566e-04
138         4.4400095334e-05
139         3.3358286252e-05
140         4.5335173849e-06
141         4.8881259398e-06
142         4.5599295901e-06
143        -5.9814570100e-05
 Sym= A
 Ene=        -2.5993633981e+01
 Spin= Alpha
 Occup=         1.0000000000e+00
  1        -4.6878387889e-05
  2         1.0913218786e-04
  3        -4.8097507253e-04
  4         9.0830065069e-03
  5         6.5937394419e-05
  6         1.3775795215e-01
  7        -9.8289878214e-01
  8         3.6226872728e-02
  9         2.6378587552e-03
 10        -1.8820655996e-02
 11         6.9371134855e-04
 12        -9.6429901095e-04
 13         6.8773560103e-03
 14        -2.5384585129e-04
 15        -8.1987119312e-06
 16        -1.3875487466e-06
 17        -1.7758516444e-08
 18         1.7570592983e-05
 19         4.9615447026e-06
 20         3.1419829370e-04
 21         1.8627063993e-05
 22         2.3825199342e-05
 23         3.0881879524e-05
 24         9.5006702129e-06
 25         5.5579589901e-06
 26         8.7995620376e-06
 27        -6.1291229729e-05
 28         5.0128903510e-06
 29        -2.1360775604e-06
 30         5.8968554377e-06
 31        -1.2931635979e-05
 32         3.5903049612e-05
 33         4.0887558160e-04
 34        -1.6206387218e-03
 35         9.1864507144e-06
 36        -8.1267207488e-05
 37        -4.8493712467e-05
 38        -3.9233310609e-05
 39         3.9728760819e-04
 40         3.6931376513e-04
 41         1.0935957590e-06
 42         4.6876807456e-06
 43        -3.2428355066e-05
 44        -2.1421417579e-06
 45        -2.0520755493e-06
 46        -6.2648477674e-06
 47         4.0157008164e-04
 48        -1.3994118937e-03
 49         8.2873364288e-06
 50        -3.5717573791e-05
 51         7.7755618572e-05
 52         2.4342765533e-04
 53        -1.1252123442e-03
 54         2.0374527363e-03
 55        -1.4716935487e-04
 56        -2.3921381732e-05
 57         8.4930319677e-05
 58         2.5430133040e-05
 59         1.1036903497e-05
 60        -6.2455657134e-06
 61         4.0132859255e-04
 62        -1.3992083850e-03
 63         2.6653037961e-06
 64        -4.2202423650e-05
 65        -7.4940698837e-05
 66         9.6478283908e-05
 67        -1.2922054090e-03
 68        -1.9484157073e-03
 69        -1.3512430513e-04
 70         2.9272919164e-06
 71        -1.0363719199e-04
 72         3.4353081467e-05
 73         5.2193833956e-06
 74         3.5904661760e-05
 75         4.0889223350e-04
 76        -1.6206633554e-03
 77         1.2967456064e-05
 78        -7.6928286599e-05
 79         5.4321283347e-05
 80        -6.7496006729e-05
 81         3.6496011994e-04
 82        -3.9738825227e-04
 83        -3.0198975014e-06
 84        -4.4583233284e-06
 85         3.2038553028e-05
 86        -5.1837424320e-06
 87        -5.2002013866e-08
 88        -4.2901702465e-05
 89         1.4848555638e-04
 90        -4.4917737708e-03
 91         1.3134319759e-04
 92         2.4519962738e-05
 93        -5.8775514850e-06
 94        -1.5129297614e-03
 95        -1.3791364432e-03
 96         1.1404243530e-04
 97        -2.1748560458e-05
 98         3.2140062422e-08
 99         1.3609114794e-05
100         1.8707917008e-04
101        -1.9735958063e-04
102        -4.4606174595e-05
103        -4.7755553563e-04
104         1.2946741662e-03
105        -1.4244525936e-04
106        -5.4820245727e-05
107         7.5684818630e-06
108         6.8786756299e-04
109         4.3115565193e-04
110        -4.3574485225e-05
111         1.1068689489e-05
112        -4.2489238615e-06
113         6.8468317588e-07
114         5.6614722343e-05
115         6.7856585092e-05
116        -4.2925862968e-05
117         1.4872052637e-04
118        -4.4904885827e-03
119        -1.3319330222e-04
120        -1.2157874486e-05
121         5.4300473398e-06
122         1.8337276926e-03
123        -9.1658985767e-04
124        -2.9364385447e-05
125        -2.0384097560e-05
126        -1.4593663960e-05
127        -9.0288739337e-06
128         5.5504682139e-05
129         2.6605622268e-04
130        -4.4596905020e-05
131        -4.7747590276e-04
132         1.2948190689e-03
133         1.5204563940e-04
134        -1.4074690241e-05
135        -5.0577825087e-06
136        -7.8013642528e-04
137         2.2800393068e-04
138         1.9341260194e-05
139         1.0803116875e-05
140        -1.2245027341e-06
141         5.3853776516e-06
142         8.3836814508e-05
143        -2.7909868663e-05
 Sym= A
 Ene=        -1.9319209333e+01
 Spin= Alpha
 Occup=         1.0000000000e+00
  1         3.7385977006e-07
  2        -1.1534887310e-06
  3         4.6182488932e-06
  4         1.4617031228e-04
  5        -4.3831922173e-05
  6         5.3753266018e-07
  7         1.2746593173e-06
  8         1.6414304280e-05
  9        -4.2628225757e-06
 10        -6.8940286513e-06
 11        -1.2105190054e-04
 12         1.3233629426e-03
 13         1.4954637768e-03
 14         3.5773505321e-02
 15        -7.3061549769e-06
 16        -9.6642261160e-06
 17         6.5758250445e-05
 18        -2.9285577964e-06
 19         2.0873104866e-06
 20         5.7768630688e-05
 21         7.6358401664e-05
 22        -5.1855397350e-04
 23         2.2491967204e-05
 24        -1.6633398729e-05
 25         2.0759747961e-04
 26         1.7467984128e-05
 27         2.2337455254e-05
 28         1.8009439111e-05
 29         6.4138293054e-06
 30         6.1975267903e-07
 31         1.0023372813e-06
 32        -7.0575003788e-01
 33         3.1792963775e-02
 34        -3.3064423743e-02
 35        -1.1449089965e-04
 36         1.2571699715e-04
 37        -2.2632021283e-03
 38         3.1621580242e-04
 39        -3.7807541133e-04
 40         6.1539337432e-03
 41         4.7581856833e-04
 42         4.1681661173e-05
 43        -4.4439540139e-05
 44        -8.1406631893e-07
 45        -2.4285212279e-06
 46         2.8027229867e-05
 47         4.8407468651e-03
 48        -1.0531075763e-02
 49        -5.9887144158e-05
 50         5.6344756411e-05
 51        -1.2117460253e-03
 52         1.4022284582e-03
 53        -1.1750375149e-03
 54         2.8871560439e-02
 55        -1.8497222241e-03
 56        -1.5546434471e-04
 57         1.1498267427e-04
 58         3.9745599804e-05
 59         1.7184926716e-05
 60        -2.4267982122e-05
 61        -4.7924337644e-03
 62         1.0612570007e-02
 63        -2.8433689237e-05
 64        -1.5596724725e-04