 Entering Link 1 = D:\Gaussian16W\G16W\l1.exe PID=     19952.
  
 Copyright (c) 1988,1990,1992,1993,1995,1998,2003,2009,2016,
            Gaussian, Inc.  All Rights Reserved.
  
 This is part of the Gaussian(R) 16 program.  It is based on
 the Gaussian(R) 09 system (copyright 2009, Gaussian, Inc.),
 the Gaussian(R) 03 system (copyright 2003, Gaussian, Inc.),
 the Gaussian(R) 98 system (copyright 1998, Gaussian, Inc.),
 the Gaussian(R) 94 system (copyright 1995, Gaussian, Inc.),
 the Gaussian 92(TM) system (copyright 1992, Gaussian, Inc.),
 the Gaussian 90(TM) system (copyright 1990, Gaussian, Inc.),
 the Gaussian 88(TM) system (copyright 1988, Gaussian, Inc.),
 the Gaussian 86(TM) system (copyright 1986, Carnegie Mellon
 University), and the Gaussian 82(TM) system (copyright 1983,
 Carnegie Mellon University). Gaussian is a federally registered
 trademark of Gaussian, Inc.
  
 This software contains proprietary and confidential information,
 including trade secrets, belonging to Gaussian, Inc.
  
 This software is provided under written license and may be
 used, copied, transmitted, or stored only in accord with that
 written license.
  
 The following legend is applicable only to US Government
 contracts under FAR:
  
                    RESTRICTED RIGHTS LEGEND
  
 Use, reproduction and disclosure by the US Government is
 subject to restrictions as set forth in subparagraphs (a)
 and (c) of the Commercial Computer Software - Restricted
 Rights clause in FAR 52.227-19.
  
 Gaussian, Inc.
 340 Quinnipiac St., Bldg. 40, Wallingford CT 06492
  
  
 ---------------------------------------------------------------
 Warning -- This program may not be used in any manner that
 competes with the business of Gaussian, Inc. or will provide
 assistance to any competitor of Gaussian, Inc.  The licensee
 of this program is prohibited from giving any competitor of
 Gaussian, Inc. access to this program.  By using this program,
 the user acknowledges that Gaussian, Inc. is engaged in the
 business of creating and licensing software in the field of
 computational chemistry and represents and warrants to the
 licensee that it is not a competitor of Gaussian, Inc. and that
 it will not use this program in any manner prohibited above.
 ---------------------------------------------------------------
  

 Cite this work as:
 Gaussian 16, Revision A.03,
 M. J. Frisch, G. W. Trucks, H. B. Schlegel, G. E. Scuseria, 
 M. A. Robb, J. R. Cheeseman, G. Scalmani, V. Barone, 
 G. A. Petersson, H. Nakatsuji, X. Li, M. Caricato, A. V. Marenich, 
 J. Bloino, B. G. Janesko, R. Gomperts, B. Mennucci, H. P. Hratchian, 
 J. V. Ortiz, A. F. Izmaylov, J. L. Sonnenberg, D. Williams-Young, 
 F. Ding, F. Lipparini, F. Egidi, J. Goings, B. Peng, A. Petrone, 
 T. Henderson, D. Ranasinghe, V. G. Zakrzewski, J. Gao, N. Rega, 
 G. Zheng, W. Liang, M. Hada, M. Ehara, K. Toyota, R. Fukuda, 
 J. Hasegawa, M. Ishida, T. Nakajima, Y. Honda, O. Kitao, H. Nakai, 
 T. Vreven, K. Throssell, J. A. Montgomery, Jr., J. E. Peralta, 
 F. Ogliaro, M. J. Bearpark, J. J. Heyd, E. N. Brothers, K. N. Kudin, 
 V. N. Staroverov, T. A. Keith, R. Kobayashi, J. Normand, 
 K. Raghavachari, A. P. Rendell, J. C. Burant, S. S. Iyengar, 
 J. Tomasi, M. Cossi, J. M. Millam, M. Klene, C. Adamo, R. Cammi, 
 J. W. Ochterski, R. L. Martin, K. Morokuma, O. Farkas, 
 J. B. Foresman, and D. J. Fox, Gaussian, Inc., Wallingford CT, 2016.
 
 ******************************************
 Gaussian 16:  EM64W-G16RevA.03 17-Dec-2016
                28-Mar-2025 
 ******************************************
 %chk=E:\VSCode_TRESC\tests\SCN\Gaussian\Scratch\SCN.chk
 %mem=1500MB
 %nprocshared=4
 Will use up to    4 processors via shared memory.
 -------------------------------------------------------------
 # upbe1pbe/gen nosymm int=nobasistransform iop(3/32=2,3/27=9)
 -------------------------------------------------------------
 1/38=1,172=1/1;
 2/12=2,15=1,17=6,18=5,40=1/2;
 3/5=7,11=2,25=1,27=9,30=1,32=2,60=-1,74=-13,116=2/1,2,3;
 4//1;
 5/5=2,38=5/2;
 6/7=2,8=2,9=2,10=2,28=1/1;
 99/5=1,9=1/99;
 ---
 SCN
 ---
 Symbolic Z-matrix:
 Charge =  0 Multiplicity = 2
 S                     0.        0.        1.01848 
 C                     0.        0.       -0.6164 
 N                     0.        0.       -1.79962 
 
                          Input orientation:                          
 ---------------------------------------------------------------------
 Center     Atomic      Atomic             Coordinates (Angstroms)
 Number     Number       Type             X           Y           Z
 ---------------------------------------------------------------------
      1         16           0        0.000000    0.000000    1.018484
      2          6           0        0.000000    0.000000   -0.616396
      3          7           0        0.000000    0.000000   -1.799624
 ---------------------------------------------------------------------
                    Distance matrix (angstroms):
                    1          2          3
     1  S    0.000000
     2  C    1.634880   0.000000
     3  N    2.818108   1.183228   0.000000
 Symmetry turned off by external request.
 Stoichiometry    CNS(2)
 Framework group  C*V[C*(NCS)]
 Deg. of freedom     2
 Full point group                 C*V     NOp   4
 Rotational constants (GHZ):           0.0000000           6.0833880           6.0833880
 General basis read from cards:  (5D, 7F)
    48 basis functions,    87 primitive gaussians,    51 cartesian basis functions
    15 alpha electrons       14 beta electrons
       nuclear repulsion energy        70.8880499672 Hartrees.
 NAtoms=    3 NActive=    3 NUniq=    3 SFac= 1.00D+00 NAtFMM=   60 NAOKFM=F Big=F
 Integral buffers will be    131072 words long.
 Raffenetti 2 integral format.
 Two-electron integral symmetry is turned off.
 One-electron integrals computed using PRISM.
 NBasis=    48 RedAO= F EigKep=  0.00D+00  NBF=    48
 NBsUse=    48 1.00D-04 EigRej=  0.00D+00 NBFU=    48
 GSVD:  LWork=       -2391 too small for GESVD, short by       11943 words or       11943 for optimal perf.
 ExpMin= 1.31D-01 ExpMax= 9.18D+03 ExpMxC= 1.38D+03 IAcc=3 IRadAn=         5 AccDes= 0.00D+00
 Harris functional with IExCor= 1009 and IRadAn=       5 diagonalized for initial guess.
 HarFok:  IExCor= 1009 AccDes= 0.00D+00 IRadAn=         5 IDoV= 1 UseB2=F ITyADJ=14
 ICtDFT=  3500011 ScaDFX=  1.000000  1.000000  1.000000  1.000000
 FoFCou: FMM=F IPFlag=           0 FMFlag=      100000 FMFlg1=           0
         NFxFlg=           0 DoJE=T BraDBF=F KetDBF=T FulRan=T
         wScrn=  0.000000 ICntrl=       500 IOpCl=  0 I1Cent=   200000004 NGrid=           0
         NMat0=    1 NMatS0=      1 NMatT0=    0 NMatD0=    1 NMtDS0=    0 NMtDT0=    0
 Symmetry not used in FoFCou.
 Initial guess <Sx>= 0.0000 <Sy>= 0.0000 <Sz>= 0.5000 <S**2>= 0.7500 S= 0.5000
 Keep R1 and R2 ints in memory in canonical form, NReq=4870338.
 Requested convergence on RMS density matrix=1.00D-08 within 128 cycles.
 Requested convergence on MAX density matrix=1.00D-06.
 Requested convergence on             energy=1.00D-06.
 No special actions if energy rises.
 GSVD:  LWork=       -2688 too small for GESVD, short by       12240 words or       12240 for optimal perf.
 Integral accuracy reduced to 1.0D-05 until final iterations.
 Initial convergence to 1.0D-05 achieved.  Increase integral accuracy.
 SCF Done:  E(UPBE1PBE) =  -490.443479364     A.U. after   19 cycles
            NFock= 19  Conv=0.21D-08     -V/T= 1.9994
 <Sx>= 0.0000 <Sy>= 0.0000 <Sz>= 0.5000 <S**2>= 0.7716 S= 0.5107
 <L.S>= 0.000000000000E+00
 Annihilation of the first spin contaminant:
 S**2 before annihilation     0.7716,   after     0.7501

 **********************************************************************

            Population analysis using the SCF density.

 **********************************************************************

 Alpha  occ. eigenvalues --  -89.06633 -14.42722 -10.31511  -8.07949  -6.03698
 Alpha  occ. eigenvalues --   -6.03075  -6.02128  -0.96485  -0.84407  -0.52199
 Alpha  occ. eigenvalues --   -0.44531  -0.42571  -0.41467  -0.34252  -0.30711
 Alpha virt. eigenvalues --    0.00160   0.01701   0.05533   0.16642   0.38239
 Alpha virt. eigenvalues --    0.48658   0.49325   0.58499   0.58560   0.59915
 Alpha virt. eigenvalues --    0.60183   0.61448   0.64825   0.71508   0.73557
 Alpha virt. eigenvalues --    0.74114   0.86497   0.88200   0.91092   1.05088
 Alpha virt. eigenvalues --    1.24818   1.58859   1.58863   1.67475   1.68773
 Alpha virt. eigenvalues --    2.21073   2.21077   2.69175   2.80883   2.82414
 Alpha virt. eigenvalues --    3.28445   6.46707 221.41295
  Beta  occ. eigenvalues --  -89.06187 -14.41866 -10.31827  -8.07500  -6.02812
  Beta  occ. eigenvalues --   -6.02154  -6.01872  -0.94812  -0.81694  -0.50642
  Beta  occ. eigenvalues --   -0.42212  -0.40558  -0.40219  -0.29419
  Beta virt. eigenvalues --   -0.20423   0.01945   0.03394   0.06596   0.17308
  Beta virt. eigenvalues --    0.39489   0.48448   0.49021   0.59355   0.62168
  Beta virt. eigenvalues --    0.63014   0.64448   0.64894   0.65527   0.73895
  Beta virt. eigenvalues --    0.74791   0.75671   0.88725   0.89385   0.91912
  Beta virt. eigenvalues --    1.05954   1.25987   1.58223   1.58252   1.68740
  Beta virt. eigenvalues --    1.68801   2.23890   2.24031   2.69702   2.82681
  Beta virt. eigenvalues --    2.82738   3.29131   6.47608 221.41661
          Condensed to atoms (all electrons):
               1          2          3
     1  S   15.598237   0.321693  -0.023068
     2  C    0.321693   4.929191   0.810961
     3  N   -0.023068   0.810961   6.253399
          Atomic-Atomic Spin Densities.
               1          2          3
     1  S    0.868762  -0.060838  -0.008580
     2  C   -0.060838  -0.183221   0.025138
     3  N   -0.008580   0.025138   0.403017
 Mulliken charges and spin densities:
               1          2
     1  S    0.103138   0.799345
     2  C   -0.061845  -0.218920
     3  N   -0.041292   0.419575
 Sum of Mulliken charges =   0.00000   1.00000
 Mulliken charges and spin densities with hydrogens summed into heavy atoms:
               1          2
     1  S    0.103138   0.799345
     2  C   -0.061845  -0.218920
     3  N   -0.041292   0.419575
 Electronic spatial extent (au):  <R**2>=            202.6491
 Charge=              0.0000 electrons
 Dipole moment (field-independent basis, Debye):
    X=              0.0000    Y=              0.0000    Z=              2.3036  Tot=              2.3036
 Quadrupole moment (field-independent basis, Debye-Ang):
   XX=            -24.1821   YY=            -22.0439   ZZ=            -26.7846
   XY=              0.0866   XZ=              0.0000   YZ=              0.0000
 Traceless Quadrupole moment (field-independent basis, Debye-Ang):
   XX=              0.1548   YY=              2.2930   ZZ=             -2.4477
   XY=              0.0866   XZ=              0.0000   YZ=              0.0000
 Octapole moment (field-independent basis, Debye-Ang**2):
  XXX=              0.0000  YYY=              0.0000  ZZZ=             16.1896  XYY=              0.0000
  XXY=              0.0000  XXZ=             -0.1592  XZZ=              0.0000  YZZ=              0.0000
  YYZ=              1.0461  XYZ=              0.0488
 Hexadecapole moment (field-independent basis, Debye-Ang**3):
 XXXX=            -26.6902 YYYY=            -22.7188 ZZZZ=           -240.8359 XXXY=              0.0804
 XXXZ=              0.0000 YYYX=              0.0804 YYYZ=              0.0000 ZZZX=              0.0000
 ZZZY=              0.0000 XXYY=             -8.2346 XXZZ=            -43.2204 YYZZ=            -39.2731
 XXYZ=              0.0000 YYXZ=              0.0000 ZZXY=              0.1598
 N-N= 7.088804996719D+01 E-N=-1.305177194921D+03  KE= 4.907136712223D+02
                          Isotropic Fermi Contact Couplings
        Atom                 a.u.       MegaHertz       Gauss      10(-4) cm-1
     1  S(33)              0.02582       8.87015       3.16509       2.95876
     2  C(13)             -0.07526     -84.60626     -30.18962     -28.22161
     3  N(14)              0.08932      28.86009      10.29800       9.62669
 --------------------------------------------------------
       Center         ----  Spin Dipole Couplings  ----
                      3XX-RR        3YY-RR        3ZZ-RR
 --------------------------------------------------------
     1   Atom       -1.626659      3.253583     -1.626924
     2   Atom       -0.008106     -0.138774      0.146880
     3   Atom       -0.364032      0.811904     -0.447872
 --------------------------------------------------------
                        XY            XZ            YZ
 --------------------------------------------------------
     1   Atom        0.197550      0.000000      0.000000
     2   Atom       -0.005289      0.000000      0.000000
     3   Atom        0.047601      0.000000      0.000000
 --------------------------------------------------------


 ---------------------------------------------------------------------------------
              Anisotropic Spin Dipole Couplings in Principal Axis System
 ---------------------------------------------------------------------------------

       Atom             a.u.   MegaHertz   Gauss  10(-4) cm-1        Axes

              Baa    -1.6346   -67.019   -23.914   -22.355  0.9992 -0.0404  0.0000
     1 S(33)  Bbb    -1.6269   -66.702   -23.801   -22.250  0.0000  0.0000  1.0000
              Bcc     3.2616   133.721    47.715    44.605  0.0404  0.9992  0.0000
 
              Baa    -0.1390   -18.651    -6.655    -6.221  0.0404  0.9992  0.0000
     2 C(13)  Bbb    -0.0079    -1.059    -0.378    -0.353  0.9992 -0.0404  0.0000
              Bcc     0.1469    19.710     7.033     6.574  0.0000  0.0000  1.0000
 
              Baa    -0.4479   -17.273    -6.164    -5.762  0.0000  0.0000  1.0000
     3 N(14)  Bbb    -0.3660   -14.114    -5.036    -4.708  0.9992 -0.0404  0.0000
              Bcc     0.8138    31.388    11.200    10.470  0.0404  0.9992  0.0000
 

 ---------------------------------------------------------------------------------


 Test job not archived.
 1|1|UNPC-BATCOMPUTER|SP|UPBE1PBE|Gen|C1N1S1(2)|DELL|28-Mar-2025|0||# u
 pbe1pbe/gen nosymm int=nobasistransform iop(3/32=2,3/27=9)||SCN||0,2|S
 ,0,0.,0.,1.018484|C,0,0.,0.,-0.616396|N,0,0.,0.,-1.799624||Version=EM6
 4W-G16RevA.03|HF=-490.4434794|S2=0.771553|S2-1=0.|S2A=0.75014|RMSD=2.1
 11e-009|Dipole=0.,0.,0.9062864|Quadrupole=0.1150556,1.7047743,-1.81983
 ,0.064351,0.,0.|PG=C*V [C*(N1C1S1)]||@


 Discoveries are often made by not following instructions,
 by going off the main road, by trying the untried.
 -- Frank Tyger
 Job cpu time:       0 days  0 hours  0 minutes  9.0 seconds.
 Elapsed time:       0 days  0 hours  0 minutes  5.0 seconds.
 File lengths (MBytes):  RWF=      6 Int=      0 D2E=      0 Chk=      1 Scr=      1
 Normal termination of Gaussian 16 at Fri Mar 28 16:35:19 2025.
