[Molden Format]
[Title]
generated by TRESC, real part2 of MOs of job FeCO4
 
[Atoms] AU
Fe   1  26   -0.0540389823    0.5191872865    1.0066466406
 O   2   8    0.2117534346    0.3334081356    6.6028244914
 C   3   6    0.1037850741    0.4413681813    4.4353204988
 C   4   6   -0.1488590074    0.1539081662   -2.4057183154
 O   5   8   -0.2001917131   -0.1354255122   -4.5586307888
 C   6   6   -3.2515199836    1.5320722906    1.0822035548
 O   7   8   -5.2145614824    2.4961101455    1.1140656578
 C   8   6    2.7435656063    2.3618413346    0.8253578566
 O   9   8    4.3670403525    3.8224610068    0.7033934295
[GTO]
  1 0
 s  6 1.0
    60923.6406430000        0.0045980778
     9147.8893982000        0.0193220084
     2081.3505927000        0.0775531983
      587.5597706700        0.2480208186
      191.0904399000        0.4675986791
       65.7327301100        0.3373548125
 s  1 1.0
      127.2589192800        1.0000000000
 s  1 1.0
       14.8309130100        1.0000000000
 s  1 1.0
        6.0653307400        1.0000000000
 s  1 1.0
       10.4499437100        1.0000000000
 s  1 1.0
        1.7245228000        1.0000000000
 s  1 1.0
        0.7177217700        1.0000000000
 s  1 1.0
        0.0914498300        1.0000000000
 s  1 1.0
        0.0337066900        1.0000000000
 p  5 1.0
      773.4375099500        0.0106099056
      182.1514971400        0.0713199466
       57.5472727600        0.2648513978
       20.6149889400        0.5090783315
        7.6348557900        0.3293226861
 p  1 1.0
        3.8719328000        1.0000000000
 p  1 1.0
        1.4924724100        1.0000000000
 p  1 1.0
        0.5606128500        1.0000000000
 d  4 1.0
       38.9681334200        0.0334987321
       10.8000670800        0.1771399682
        3.6136458000        0.4404450273
        1.2129967900        0.5720563253
 d  1 1.0
        0.3652439300        1.0000000000
 p  1 1.0
        0.1349150000        1.0000000000
 f  1 1.0
        1.5980000000        1.0000000000
 
  2 0
 s  5 1.0
     2266.1767785000        0.0060711540
      340.8701019100        0.0417308970
       77.3631351700        0.1850777598
       21.4796449400        0.4668774046
        6.6589433100        0.4435718061
 s  1 1.0
        0.8097597600        1.0000000000
 s  1 1.0
        0.2553077200        1.0000000000
 p  3 1.0
       17.7215043200        0.0628680198
        3.8635505400        0.3334973703
        1.0480920900        0.7412421661
 p  1 1.0
        0.2764154400        1.0000000000
 d  1 1.0
        1.2000000000        1.0000000000
 
  3 0
 s  5 1.0
     1238.4016938000        0.0059599745
      186.2900499200        0.0422621111
       42.2511763500        0.1866575214
       11.6765579300        0.4675815865
        3.5930506500        0.4422897287
 s  1 1.0
        0.4024514700        1.0000000000
 s  1 1.0
        0.1309018300        1.0000000000
 p  3 1.0
        9.4680970600        0.0570294585
        2.0103545100        0.3130471495
        0.5477100500        0.7605135301
 p  1 1.0
        0.1526861400        1.0000000000
 d  1 1.0
        0.8000000000        1.0000000000
 
  4 0
 s  5 1.0
     1238.4016938000        0.0059599745
      186.2900499200        0.0422621111
       42.2511763500        0.1866575214
       11.6765579300        0.4675815865
        3.5930506500        0.4422897287
 s  1 1.0
        0.4024514700        1.0000000000
 s  1 1.0
        0.1309018300        1.0000000000
 p  3 1.0
        9.4680970600        0.0570294585
        2.0103545100        0.3130471495
        0.5477100500        0.7605135301
 p  1 1.0
        0.1526861400        1.0000000000
 d  1 1.0
        0.8000000000        1.0000000000
 
  5 0
 s  5 1.0
     2266.1767785000        0.0060711540
      340.8701019100        0.0417308970
       77.3631351700        0.1850777598
       21.4796449400        0.4668774046
        6.6589433100        0.4435718061
 s  1 1.0
        0.8097597600        1.0000000000
 s  1 1.0
        0.2553077200        1.0000000000
 p  3 1.0
       17.7215043200        0.0628680198
        3.8635505400        0.3334973703
        1.0480920900        0.7412421661
 p  1 1.0
        0.2764154400        1.0000000000
 d  1 1.0
        1.2000000000        1.0000000000
 
  6 0
 s  5 1.0
     1238.4016938000        0.0059599745
      186.2900499200        0.0422621111
       42.2511763500        0.1866575214
       11.6765579300        0.4675815865
        3.5930506500        0.4422897287
 s  1 1.0
        0.4024514700        1.0000000000
 s  1 1.0
        0.1309018300        1.0000000000
 p  3 1.0
        9.4680970600        0.0570294585
        2.0103545100        0.3130471495
        0.5477100500        0.7605135301
 p  1 1.0
        0.1526861400        1.0000000000
 d  1 1.0
        0.8000000000        1.0000000000
 
  7 0
 s  5 1.0
     2266.1767785000        0.0060711540
      340.8701019100        0.0417308970
       77.3631351700        0.1850777598
       21.4796449400        0.4668774046
        6.6589433100        0.4435718061
 s  1 1.0
        0.8097597600        1.0000000000
 s  1 1.0
        0.2553077200        1.0000000000
 p  3 1.0
       17.7215043200        0.0628680198
        3.8635505400        0.3334973703
        1.0480920900        0.7412421661
 p  1 1.0
        0.2764154400        1.0000000000
 d  1 1.0
        1.2000000000        1.0000000000
 
  8 0
 s  5 1.0
     1238.4016938000        0.0059599745
      186.2900499200        0.0422621111
       42.2511763500        0.1866575214
       11.6765579300        0.4675815865
        3.5930506500        0.4422897287
 s  1 1.0
        0.4024514700        1.0000000000
 s  1 1.0
        0.1309018300        1.0000000000
 p  3 1.0
        9.4680970600        0.0570294585
        2.0103545100        0.3130471495
        0.5477100500        0.7605135301
 p  1 1.0
        0.1526861400        1.0000000000
 d  1 1.0
        0.8000000000        1.0000000000
 
  9 0
 s  5 1.0
     2266.1767785000        0.0060711540
      340.8701019100        0.0417308970
       77.3631351700        0.1850777598
       21.4796449400        0.4668774046
        6.6589433100        0.4435718061
 s  1 1.0
        0.8097597600        1.0000000000
 s  1 1.0
        0.2553077200        1.0000000000
 p  3 1.0
       17.7215043200        0.0628680198
        3.8635505400        0.3334973703
        1.0480920900        0.7412421661
 p  1 1.0
        0.2764154400        1.0000000000
 d  1 1.0
        1.2000000000        1.0000000000
 
[5D]
[7F]
[9G]
[MO]
 Ene=   0.90588833492035E+00
 Spin= Alpha
 Occup=    0.000000
   1      0.000001159972
   2      0.000000410653
   3      0.000004950388
   4      0.000019675110
   5     -0.000023054355
   6     -0.000030845270
   7      0.000121240395
   8     -0.002043751887
   9      0.000612919663
  10      0.000319733885
  11     -0.000075052291
  12     -0.000028429664
  13     -0.000207585272
  14      0.000092923818
  15      0.000043154367
  16     -0.001604753655
  17      0.000252597291
  18      0.000050735418
  19      0.003705144391
  20     -0.000389526964
  21      0.000010074247
  22     -0.004165527997
  23      0.029812210030
  24      0.028931460783
  25      0.000109900361
  26      0.002471860627
  27      0.004632353183
  28     -0.039404330433
  29     -0.036036153687
  30     -0.000396093617
  31     -0.002487733332
  32     -0.056658223687
  33      0.002068731503
  34     -0.001313703336
  35      0.000139382847
  36      0.000012293240
  37      0.000015902274
  38      0.000020251572
  39     -0.000030738689
  40     -0.000009895092
  41      0.000003926815
  42      0.000132304511
  43     -0.000099808669
  44      0.003840852502
  45     -0.008899752050
  46     -0.027175415367
  47     -0.034922294449
  48      0.015439266549
  49      0.030163901622
  50      0.039682955551
  51      0.000113261363
  52     -0.000592075762
  53     -0.000116621344
  54     -0.000038849502
  55      0.000026723654
  56      0.000868500605
  57     -0.001761823824
  58      0.040632277957
  59      0.003048263973
  60      0.007515209585
  61      0.004053048941
  62     -0.031347208802
  63     -0.010193459328
  64     -0.007056565895
  65      0.002393698323
  66      0.005027356177
  67      0.002945522014
  68      0.000372837359
  69      0.000003195515
  70     -0.000733964882
  71      0.000881028943
  72     -0.037577424216
  73      0.003772119525
  74     -0.007474870722
  75     -0.003789504851
  76     -0.028914074970
  77      0.008574134923
  78      0.005138718683
  79     -0.003178295199
  80      0.004554975105
  81      0.002430652378
  82     -0.000307565362
  83      0.000330777025
  84     -0.000154062347
  85      0.000149614852
  86     -0.002689785032
  87     -0.012997787311
  88      0.026453682544
  89      0.034338550345
  90      0.019912906434
  91     -0.029309161204
  92     -0.038773911776
  93     -0.000027081690
  94     -0.000579006984
  95     -0.000103697837
  96     -0.000002236363
  97     -0.000112093591
  98      0.000027141732
  99     -0.000072382465
 100      0.002207254888
 101     -0.002967645105
 102     -0.000195635148
 103     -0.000043482874
 104     -0.000531829594
 105      0.001830459525
 106     -0.000843570198
 107      0.000265678011
 108      0.001878479597
 109     -0.005122342803
 110      0.000350629843
 111     -0.000214013791
 112     -0.000009577207
 113      0.000035463817
 114      0.000470637641
 115      0.017236829606
 116      0.000995351342
 117      0.001207761576
 118     -0.016144898288
 119     -0.001133029189
 120     -0.001227506529
 121      0.000043745750
 122     -0.000559707723
 123     -0.000024114610
 124     -0.000007682678
 125     -0.000020674822
 126     -0.000166103003
 127      0.000687104445
 128     -0.004586398496
 129      0.010245482399
 130      0.000024360537
 131      0.000022424147
 132     -0.000144932861
 133      0.002778241109
 134      0.002333072813
 135     -0.000302157244
 136      0.006198071924
 137      0.002340444251
 138      0.000165416269
 139      0.000073077595
 140     -0.000107915791
 141      0.000483855431
 142     -0.000897143521
 143     -0.028465552395
 144     -0.000330230913
 145     -0.000202867404
 146      0.026391540377
 147     -0.000416379713
 148     -0.000393642892
 149      0.000128405431
 150     -0.000756082038
 151     -0.000948566379
 152      0.000000875205
 153     -0.000057899596
 Ene=   0.90948477395938E+00
 Spin= Alpha
 Occup=    0.000000
   1      0.000002712029
   2      0.000001248397
   3     -0.000020447386
   4     -0.000035591983
   5      0.000025277285
   6      0.000090032683
   7     -0.000098025852
   8      0.000896664875
   9     -0.000294203010
  10     -0.000120626611
  11     -0.000019354198
  12      0.000021705621
  13      0.001070370094
  14      0.000058793722
  15     -0.000019786076
  16      0.000020334850
  17      0.000049325331
  18     -0.000072288763
  19     -0.002866737001
  20     -0.000184551619
  21      0.000080956719
  22     -0.000029284754
  23      0.000448177554
  24      0.000918202107
  25     -0.000144109717
  26      0.000034020947
  27      0.000325010644
  28     -0.000475844129
  29     -0.001409617347
  30      0.000094364906
  31     -0.000030727889
  32      0.000683295700
  33      0.000544522932
  34     -0.000330030517
  35      0.000023017820
  36      0.000001171971
  37      0.000004324694
  38     -0.000000326570
  39     -0.000001815329
  40      0.000000864720
  41     -0.000004469806
  42     -0.000121147092
  43      0.000675878356
  44     -0.000925652563
  45     -0.001882200373
  46     -0.000528357961
  47     -0.000997508536
  48      0.002559431282
  49      0.000552911242
  50      0.001248375573
  51     -0.000010521826
  52     -0.000011881369
  53      0.000003967257
  54      0.000018994811
  55      0.000002808385
  56      0.000020520338
  57      0.001267615122
  58     -0.001190612235
  59     -0.000507823255
  60      0.000051170939
  61      0.000190452036
  62      0.000524788941
  63      0.000041223861
  64     -0.000621765441
  65      0.000210264963
  66      0.000096641172
  67      0.000019122944
  68      0.000170139677
  69      0.000015547912
  70     -0.000117291591
  71     -0.000764155026
  72     -0.000652385124
  73     -0.000211037874
  74     -0.000082466504
  75     -0.000241162719
  76     -0.001463093915
  77     -0.000041349051
  78      0.000442038757
  79     -0.000413200147
  80      0.000049096973
  81     -0.000010662491
  82     -0.000083639715
  83     -0.000018743085
  84      0.000103240430
  85     -0.000588844899
  86      0.000415300558
  87     -0.002546051917
  88      0.000332461874
  89      0.000614883124
  90      0.003544034079
  91     -0.000310215077
  92     -0.000729494388
  93      0.000012512026
  94     -0.000006979570
  95     -0.000002490205
  96     -0.000010684167
  97     -0.000004484587
  98      0.000052374532
  99     -0.000225082145
 100      0.001132870397
 101     -0.000520490925
 102     -0.000180728714
 103      0.000064977511
 104      0.002263496766
 105      0.000798113400
 106     -0.000318802614
 107     -0.000077103014
 108     -0.000210355631
 109     -0.000103671074
 110      0.000040432801
 111     -0.000056492187
 112      0.000034972673
 113     -0.000149216737
 114      0.000172532953
 115      0.002268741415
 116      0.000272463477
 117     -0.000372392832
 118     -0.003700795764
 119     -0.000524884375
 120      0.000509250480
 121     -0.000006259816
 122      0.000046791441
 123     -0.000036812543
 124     -0.000002414705
 125     -0.000001392749
 126      0.000025097517
 127     -0.000154097666
 128      0.000361094902
 129     -0.000239394353
 130      0.000031722665
 131      0.000038152775
 132      0.001903177408
 133     -0.000028706498
 134     -0.000095492003
 135     -0.000094989145
 136      0.000315460019
 137      0.000067268579
 138      0.000017827997
 139      0.000019826429
 140      0.000022765535
 141     -0.000103177720
 142      0.000065527783
 143      0.001279025492
 144      0.000152100056
 145     -0.000332783806
 146     -0.002553642391
 147     -0.000184987798
 148      0.000417397547
 149      0.000002972096
 150     -0.000048885416
 151     -0.000059191162
 152     -0.000005746943
 153     -0.000008165375
 Ene=   0.90948477395959E+00
 Spin= Alpha
 Occup=    0.000000
   1     -0.000066683277
   2     -0.000030536402
   3      0.000489709469
   4      0.000842614578
   5     -0.000589847510
   6     -0.002145728917
   7      0.002254411743
   8     -0.020453972596
   9      0.007151737380
  10     -0.000247144613
  11      0.006250487342
  12      0.000158244841
  13      0.000223694042
  14     -0.005800246131
  15      0.000841759134
  16      0.000861862229
  17     -0.021612855107
  18     -0.000954832224
  19     -0.001174078403
  20      0.029156195617
  21     -0.001399690074
  22     -0.001649243199
  23      0.000090714840
  24      0.000115495196
  25      0.005304456112
  26     -0.007472672402
  27     -0.004947165004
  28      0.000169907477
  29      0.000701427281
  30      0.003457789145
  31     -0.016408271351
  32      0.011633159488
  33     -0.267251664178
  34     -0.025638492787
  35     -0.000040834475
  36      0.000433268548
  37      0.000009266983
  38     -0.000016168636
  39      0.000040993671
  40      0.000519504931
  41      0.000334038166
  42      0.000199944652
  43     -0.000987181264
  44      0.006268087216
  45     -0.007599361640
  46      0.014991657683
  47      0.004509967105
  48      0.011189713742
  49     -0.012689187102
  50     -0.004863013849
  51     -0.000023137582
  52      0.000242687002
  53     -0.000099853471
  54     -0.000347378031
  55      0.000895043353
  56      0.001179555322
  57     -0.006166863050
  58      0.022017967089
  59      0.003125266280
  60      0.002575370857
  61      0.000705609281
  62     -0.023429219259
  63     -0.005923185107
  64      0.000010731726
  65      0.002614931840
  66     -0.004220870387
  67     -0.000534218688
  68     -0.003498678881
  69      0.008221500978
  70      0.001196978227
  71     -0.006299761251
  72      0.022949223709
  73     -0.003480389845
  74      0.002309456046
  75      0.000472090325
  76      0.024402175849
  77     -0.004160517426
  78      0.001937550529
  79      0.002088495306
  80      0.004080401219
  81     -0.000071915461
  82     -0.003217529363
  83      0.008595043713
  84      0.000211981866
  85     -0.001039130192
  86      0.006403678340
  87      0.006180866382
  88      0.015690684985
  89      0.004390465505
  90     -0.009984797570
  91     -0.013675680497
  92     -0.004961111920
  93      0.000007580288
  94     -0.000293291890
  95      0.000002559781
  96     -0.000372543520
  97      0.000876937824
  98     -0.008598993596
  99      0.024877938880
 100     -0.240120659468
 101     -0.000585042568
 102      0.032160623187
 103     -0.016077872912
 104      0.002966177450
 105     -0.174435435397
 106      0.086277711431
 107      0.010271114313
 108      0.000489915101
 109     -0.000156205406
 110     -0.010300710706
 111      0.013438509107
 112     -0.004135870159
 113      0.016241225069
 114     -0.034941288968
 115      0.000915599703
 116     -0.054221654823
 117      0.030666875066
 118     -0.001647304938
 119      0.098247499586
 120     -0.054020791750
 121      0.000489321473
 122      0.000021070138
 123      0.000008420125
 124     -0.000265884051
 125      0.000495874254
 126      0.006684339741
 127     -0.015362355011
 128      0.202018574975
 129     -0.001724029584
 130      0.022532230342
 131      0.020167711695
 132      0.009409652721
 133     -0.126661854418
 134     -0.110805964873
 135     -0.006095450502
 136     -0.001095824661
 137     -0.000944434886
 138      0.001050830146
 139      0.015193619130
 140      0.002725787168
 141     -0.010004529534
 142      0.028522848199
 143      0.002696811187
 144     -0.045042573913
 145     -0.022111974904
 146     -0.004982225662
 147      0.077513622443
 148      0.047147318805
 149     -0.000251016688
 150     -0.000057500374
 151     -0.000030134122
 152      0.000286347287
 153      0.000708986939
 Ene=   0.91570960472808E+00
 Spin= Alpha
 Occup=    0.000000
   1     -0.000009666769
   2     -0.000004729654
   3      0.000103339760
   4      0.000206788992
   5     -0.000166135100
   6     -0.000492036876
   7      0.000757907375
   8     -0.008823550627
   9      0.000314286672
  10      0.000247293239
  11      0.000076845531
  12      0.000000040280
  13     -0.000127989345
  14     -0.000071113367
  15      0.000013361011
  16     -0.001376758487
  17     -0.000254993182
  18     -0.000071532484
  19      0.003425324946
  20      0.000317827333
  21      0.000318661468
  22     -0.002203110466
  23      0.011347849087
  24      0.024170728117
  25     -0.000753111075
  26      0.001245813126
  27      0.004930002911
  28     -0.014571246364
  29     -0.028610669531
  30     -0.000589303441
  31     -0.001973878636
  32     -0.058215647980
  33     -0.003252047592
  34     -0.007068319422
  35      0.000138544270
  36      0.000023063381
  37      0.000010456308
  38      0.000018266723
  39     -0.000019761160
  40     -0.000006569439
  41      0.000023167775
  42      0.000183959493
  43     -0.000343009952
  44      0.003259771128
  45     -0.008527031652
  46     -0.009709649603
  47     -0.030041557130
  48      0.014666033578
  49      0.010678847325
  50      0.034157323636
  51      0.000094989263
  52     -0.000243316036
  53     -0.000038877584
  54     -0.000004033543
  55      0.000022863734
  56      0.000813944648
  57     -0.001643200596
  58      0.040387118671
  59      0.003361699101
  60      0.002971655510
  61      0.003182997935
  62     -0.029618243483
  63     -0.004321234361
  64     -0.005929888268
  65      0.002421775572
  66      0.002042162636
  67      0.002144711839
  68      0.000316445792
  69      0.000161023045
  70     -0.000816625487
  71      0.002704462352
  72     -0.039908389051
  73      0.002594579439
  74     -0.002789627685
  75     -0.002853079225
  76     -0.033304665974
  77      0.001902208467
  78      0.003487500708
  79     -0.002652010106
  80      0.001830435893
  81      0.001750942170
  82     -0.000205799798
  83      0.000368489921
  84      0.000036605219
  85     -0.000446456180
  86     -0.005238277276
  87     -0.011655799589
  88      0.009326398424
  89      0.029609088852
  90      0.017257773781
  91     -0.009770410472
  92     -0.033655684955
  93     -0.000033997856
  94     -0.000265417286
  95     -0.000004802106
  96      0.000000501414
  97     -0.000023983904
  98      0.000010100814
  99     -0.000831269213
 100      0.003360525964
 101      0.000494949595
 102      0.001010815876
 103     -0.000495943832
 104      0.000092156727
 105      0.003241224601
 106     -0.000177827362
 107      0.000292960811
 108     -0.000349890410
 109     -0.003316884483
 110      0.000132201474
 111     -0.000110273525
 112     -0.000034877458
 113     -0.000088088958
 114      0.001811781627
 115      0.005192584213
 116      0.000260940346
 117     -0.000062609384
 118     -0.005217887756
 119      0.000350644793
 120     -0.000668374808
 121      0.000069237685
 122     -0.000122857856
 123     -0.000199734501
 124     -0.000025971846
 125      0.000053701197
 126      0.000175868439
 127     -0.001281487698
 128      0.006772892170
 129      0.006493838685
 130      0.000142733614
 131     -0.000037395538
 132     -0.000931604155
 133     -0.005380131621
 134     -0.002664061446
 135     -0.000378912217
 136      0.004026835329
 137      0.000176131640
 138      0.000208846710
 139      0.000445988824
 140      0.000030489543
 141     -0.000304853144
 142      0.002093019072
 143     -0.015249915525
 144     -0.001550365619
 145     -0.001304772735
 146      0.014590635824
 147      0.001945953337
 148      0.000887801805
 149      0.000100545044
 150     -0.000360171178
 151     -0.000598442884
 152      0.000024168424
 153     -0.000084480561
 Ene=   0.91570960472840E+00
 Spin= Alpha
 Occup=    0.000000
   1      0.000008167208
   2      0.000004062038
   3     -0.000092660194
   4     -0.000188599600
   5      0.000153641067
   6      0.000444619969
   7     -0.000707451050
   8      0.008323597469
   9     -0.000219219479
  10      0.000251153480
  11     -0.000012658375
  12      0.000020512445
  13     -0.000136215038
  14      0.000016119560
  15     -0.000018157520
  16     -0.001391428623
  17      0.000009312836
  18     -0.000047904525
  19      0.003473179744
  20      0.000096221134
  21     -0.000036033630
  22     -0.002828389466
  23      0.011852484510
  24      0.024272223727
  25     -0.000382109426
  26      0.001491674950
  27      0.001206150624
  28     -0.015645038333
  29     -0.028985756332
  30      0.001836000007
  31     -0.001435815836
  32     -0.058799677326
  33     -0.002390102692
  34      0.001986937179
  35      0.000138635698
  36      0.000008889382
  37      0.000023463366
  38      0.000018239987
  39     -0.000017979599
  40      0.000010821791
  41     -0.000020375215
  42     -0.000031296434
  43      0.000425387901
  44      0.005315726850
  45     -0.008504111610
  46     -0.010466126073
  47     -0.030550437356
  48      0.013770673337
  49      0.011379646482
  50      0.035049543231
  51      0.000070110781
  52     -0.000265316118
  53     -0.000002404976
  54     -0.000022882679
  55      0.000007906938
  56      0.000837042276
  57     -0.002807274490
  58      0.040353997295
  59      0.002213413375
  60      0.003087887755
  61      0.003076831479
  62     -0.033049850627
  63     -0.004538461404
  64     -0.006262523021
  65      0.002147736665
  66      0.002188842435
  67      0.002146723557
  68      0.000164635423
  69     -0.000003619015
  70     -0.000798023413
  71      0.001567853660
  72     -0.040177259585
  73      0.003770793919
  74     -0.002841334438
  75     -0.002909644797
  76     -0.030041955942
  77      0.002239037019
  78      0.003480510932
  79     -0.002928215351
  80      0.001843193235
  81      0.001745461214
  82     -0.000365694994
  83      0.000211243389
  84     -0.000180431710
  85      0.000329300241
  86     -0.003216825684
  87     -0.011664563464
  88      0.009620605160
  89      0.029393740531
  90      0.018133941142
  91     -0.010158211937
  92     -0.033009437818
  93     -0.000055085279
  94     -0.000263352914
  95     -0.000048520874
  96     -0.000013349254
  97     -0.000042608691
  98     -0.000078160094
  99      0.001041618645
 100     -0.004747137039
 101      0.000413609803
 102     -0.000656323284
 103      0.000417186210
 104      0.000347775204
 105     -0.004242940358
 106      0.000622387538
 107      0.000310416693
 108     -0.000281430490
 109     -0.003373598719
 110      0.000058072194
 111     -0.000082441553
 112      0.000004471579
 113      0.000194944083
 114     -0.001938457804
 115      0.005564678856
 116     -0.000243159251
 117      0.000681626593
 118     -0.005594599572
 119     -0.000020337488
 120     -0.000099142300
 121     -0.000016187722
 122     -0.000137393336
 123     -0.000194336614
 124      0.000028638063
 125     -0.000071250480
 126     -0.000127104239
 127      0.001158929446
 128     -0.005635634332
 129      0.006578507632
 130      0.000546297459
 131      0.000710931263
 132     -0.001539261103
 133      0.004488856680
 134      0.002031977342
 135     -0.000200416293
 136      0.004123317729
 137      0.000261898906
 138      0.000091765609
 139      0.000011747067
 140     -0.000016487407
 141      0.000261570640
 142     -0.001970069040
 143     -0.015795967304
 144      0.000046610011
 145     -0.000038315080
 146      0.015116121397
 147     -0.000245919419
 148      0.000510391921
 149      0.000034587195
 150     -0.000378669542
 151     -0.000617668217
 152      0.000001921842
 153      0.000015760798
 Ene=   0.92150951262639E+00
 Spin= Alpha
 Occup=    0.000000
   1     -0.000002739909
   2     -0.000001289655
   3      0.000023692854
   4      0.000043791248
   5     -0.000033084337
   6     -0.000106577660
   7      0.000134227088
   8     -0.001169079021
   9      0.000411572661
  10     -0.000011945513
  11      0.000048436479
  12     -0.000022030236
  13     -0.000064638234
  14     -0.000033805816
  15      0.000023864887
  16      0.000135250390
  17     -0.000168215523
  18      0.000052737621
  19     -0.000174626998
  20      0.000185611008
  21     -0.000030901289
  22     -0.000145154888
  23      0.001984199765
  24     -0.001580103200
  25      0.000392295840
  26      0.000012303698
  27     -0.000252387507
  28     -0.003590659319
  29      0.001823590420
  30     -0.000339742316
  31     -0.000194809798
  32      0.004863327289
  33     -0.001925040819
  34      0.000569107660
  35     -0.000019130434
  36      0.000001420842
  37     -0.000002785756
  38     -0.000000920424
  39     -0.000007216243
  40      0.000001444432
  41      0.000011160052
  42      0.000011082911
  43     -0.000107000953
  44      0.000302255535
  45      0.000419270284
  46     -0.000300275597
  47      0.002251217652
  48     -0.000680560047
  49     -0.000626008666
  50     -0.002695687642
  51      0.000010779804
  52     -0.000098892263
  53     -0.000014531662
  54     -0.000018742982
  55      0.000009254195
  56      0.000032218549
  57     -0.000568301685
  58     -0.001434224525
  59      0.000054118861
  60      0.000243582036
  61     -0.000204651166
  62      0.000542047167
  63      0.001139860781
  64      0.000713007387
  65     -0.000133674458
  66      0.000447419807
  67     -0.000083868989
  68     -0.000108832218
  69      0.000012240983
  70      0.000144531814
  71     -0.000401187232
  72      0.004746635967
  73     -0.000411299326
  74     -0.000226147193
  75      0.000186905384
  76      0.004133540391
  77     -0.001027470867
  78     -0.000087621815
  79      0.000402345866
  80      0.000531096820
  81     -0.000067530037
  82     -0.000031266485
  83      0.000117436098
  84      0.000001743727
  85      0.000045760623
  86      0.000552890102
  87      0.001538999969
  88      0.000651025642
  89     -0.001828266878
  90     -0.002415180058
  91      0.000238559069
  92      0.002059140198
  93      0.000004134898
  94     -0.000101758895
  95     -0.000000998661
  96     -0.000008164479
  97     -0.000008188291
  98     -0.000139262425
  99      0.000555353907
 100     -0.003139074651
 101     -0.000749997238
 102      0.000373905135
 103     -0.000249106133
 104     -0.000423765265
 105     -0.002212091473
 106      0.001103570953
 107      0.000184873296
 108      0.000582645224
 109      0.000016575509
 110     -0.000088438060
 111      0.000187636193
 112     -0.000071657142
 113      0.000305200211
 114     -0.000517380473
 115      0.000276864248
 116     -0.000667715503
 117      0.000905636598
 118      0.000482944683
 119      0.001242706038
 120     -0.001245768448
 121      0.000012924319
 122     -0.000108022756
 123      0.000076838552
 124     -0.000001342726
 125     -0.000000707802
 126     -0.000017496147
 127      0.000283727655
 128      0.000220245068
 129      0.000334679330
 130      0.000040680648
 131      0.000033897635
 132     -0.000421336661
 133     -0.000121839115
 134     -0.000240085120
 135      0.000056951388
 136      0.000038147750
 137      0.000360592791
 138      0.000015405432
 139      0.000091525758
 140     -0.000023604899
 141      0.000132522396
 142     -0.000126557821
 143     -0.000152777963
 144     -0.000248339887
 145      0.000366732521
 146      0.000021418137
 147      0.000294146404
 148     -0.000335037342
 149      0.000012910354
 150     -0.000049100699
 151     -0.000018294242
 152     -0.000000011085
 153      0.000006682396
 Ene=   0.92150951262662E+00
 Spin= Alpha
 Occup=    0.000000
   1      0.001086377632
   2      0.000511239626
   3     -0.009418402326
   4     -0.017443475847