[Molden Format]
[Title]
generated by TRESC, real part1 of MOs of job FeCO4
 
[Atoms] AU
Fe   1  26   -0.0540389823    0.5191872865    1.0066466406
 O   2   8    0.2117534346    0.3334081356    6.6028244914
 C   3   6    0.1037850741    0.4413681813    4.4353204988
 C   4   6   -0.1488590074    0.1539081662   -2.4057183154
 O   5   8   -0.2001917131   -0.1354255122   -4.5586307888
 C   6   6   -3.2515199836    1.5320722906    1.0822035548
 O   7   8   -5.2145614824    2.4961101455    1.1140656578
 C   8   6    2.7435656063    2.3618413346    0.8253578566
 O   9   8    4.3670403525    3.8224610068    0.7033934295
[GTO]
  1 0
 s  6 1.0
    60923.6406430000        0.0045980778
     9147.8893982000        0.0193220084
     2081.3505927000        0.0775531983
      587.5597706700        0.2480208186
      191.0904399000        0.4675986791
       65.7327301100        0.3373548125
 s  1 1.0
      127.2589192800        1.0000000000
 s  1 1.0
       14.8309130100        1.0000000000
 s  1 1.0
        6.0653307400        1.0000000000
 s  1 1.0
       10.4499437100        1.0000000000
 s  1 1.0
        1.7245228000        1.0000000000
 s  1 1.0
        0.7177217700        1.0000000000
 s  1 1.0
        0.0914498300        1.0000000000
 s  1 1.0
        0.0337066900        1.0000000000
 p  5 1.0
      773.4375099500        0.0106099056
      182.1514971400        0.0713199466
       57.5472727600        0.2648513978
       20.6149889400        0.5090783315
        7.6348557900        0.3293226861
 p  1 1.0
        3.8719328000        1.0000000000
 p  1 1.0
        1.4924724100        1.0000000000
 p  1 1.0
        0.5606128500        1.0000000000
 d  4 1.0
       38.9681334200        0.0334987321
       10.8000670800        0.1771399682
        3.6136458000        0.4404450273
        1.2129967900        0.5720563253
 d  1 1.0
        0.3652439300        1.0000000000
 p  1 1.0
        0.1349150000        1.0000000000
 f  1 1.0
        1.5980000000        1.0000000000
 
  2 0
 s  5 1.0
     2266.1767785000        0.0060711540
      340.8701019100        0.0417308970
       77.3631351700        0.1850777598
       21.4796449400        0.4668774046
        6.6589433100        0.4435718061
 s  1 1.0
        0.8097597600        1.0000000000
 s  1 1.0
        0.2553077200        1.0000000000
 p  3 1.0
       17.7215043200        0.0628680198
        3.8635505400        0.3334973703
        1.0480920900        0.7412421661
 p  1 1.0
        0.2764154400        1.0000000000
 d  1 1.0
        1.2000000000        1.0000000000
 
  3 0
 s  5 1.0
     1238.4016938000        0.0059599745
      186.2900499200        0.0422621111
       42.2511763500        0.1866575214
       11.6765579300        0.4675815865
        3.5930506500        0.4422897287
 s  1 1.0
        0.4024514700        1.0000000000
 s  1 1.0
        0.1309018300        1.0000000000
 p  3 1.0
        9.4680970600        0.0570294585
        2.0103545100        0.3130471495
        0.5477100500        0.7605135301
 p  1 1.0
        0.1526861400        1.0000000000
 d  1 1.0
        0.8000000000        1.0000000000
 
  4 0
 s  5 1.0
     1238.4016938000        0.0059599745
      186.2900499200        0.0422621111
       42.2511763500        0.1866575214
       11.6765579300        0.4675815865
        3.5930506500        0.4422897287
 s  1 1.0
        0.4024514700        1.0000000000
 s  1 1.0
        0.1309018300        1.0000000000
 p  3 1.0
        9.4680970600        0.0570294585
        2.0103545100        0.3130471495
        0.5477100500        0.7605135301
 p  1 1.0
        0.1526861400        1.0000000000
 d  1 1.0
        0.8000000000        1.0000000000
 
  5 0
 s  5 1.0
     2266.1767785000        0.0060711540
      340.8701019100        0.0417308970
       77.3631351700        0.1850777598
       21.4796449400        0.4668774046
        6.6589433100        0.4435718061
 s  1 1.0
        0.8097597600        1.0000000000
 s  1 1.0
        0.2553077200        1.0000000000
 p  3 1.0
       17.7215043200        0.0628680198
        3.8635505400        0.3334973703
        1.0480920900        0.7412421661
 p  1 1.0
        0.2764154400        1.0000000000
 d  1 1.0
        1.2000000000        1.0000000000
 
  6 0
 s  5 1.0
     1238.4016938000        0.0059599745
      186.2900499200        0.0422621111
       42.2511763500        0.1866575214
       11.6765579300        0.4675815865
        3.5930506500        0.4422897287
 s  1 1.0
        0.4024514700        1.0000000000
 s  1 1.0
        0.1309018300        1.0000000000
 p  3 1.0
        9.4680970600        0.0570294585
        2.0103545100        0.3130471495
        0.5477100500        0.7605135301
 p  1 1.0
        0.1526861400        1.0000000000
 d  1 1.0
        0.8000000000        1.0000000000
 
  7 0
 s  5 1.0
     2266.1767785000        0.0060711540
      340.8701019100        0.0417308970
       77.3631351700        0.1850777598
       21.4796449400        0.4668774046
        6.6589433100        0.4435718061
 s  1 1.0
        0.8097597600        1.0000000000
 s  1 1.0
        0.2553077200        1.0000000000
 p  3 1.0
       17.7215043200        0.0628680198
        3.8635505400        0.3334973703
        1.0480920900        0.7412421661
 p  1 1.0
        0.2764154400        1.0000000000
 d  1 1.0
        1.2000000000        1.0000000000
 
  8 0
 s  5 1.0
     1238.4016938000        0.0059599745
      186.2900499200        0.0422621111
       42.2511763500        0.1866575214
       11.6765579300        0.4675815865
        3.5930506500        0.4422897287
 s  1 1.0
        0.4024514700        1.0000000000
 s  1 1.0
        0.1309018300        1.0000000000
 p  3 1.0
        9.4680970600        0.0570294585
        2.0103545100        0.3130471495
        0.5477100500        0.7605135301
 p  1 1.0
        0.1526861400        1.0000000000
 d  1 1.0
        0.8000000000        1.0000000000
 
  9 0
 s  5 1.0
     2266.1767785000        0.0060711540
      340.8701019100        0.0417308970
       77.3631351700        0.1850777598
       21.4796449400        0.4668774046
        6.6589433100        0.4435718061
 s  1 1.0
        0.8097597600        1.0000000000
 s  1 1.0
        0.2553077200        1.0000000000
 p  3 1.0
       17.7215043200        0.0628680198
        3.8635505400        0.3334973703
        1.0480920900        0.7412421661
 p  1 1.0
        0.2764154400        1.0000000000
 d  1 1.0
        1.2000000000        1.0000000000
 
[5D]
[7F]
[9G]
[MO]
 Ene=  -0.26101104594425E+03
 Spin= Alpha
 Occup=    0.000000
   1     -0.000003477897
   2     -0.000000113492
   3     -0.000000092060
   4      0.000000019163
   5      0.000000013764
   6     -0.000000007217
   7      0.000000003378
   8     -0.000000000883
   9      0.000000000060
  10     -0.000000007232
  11     -0.000000003084
  12     -0.000000000036
  13      0.000000009036
  14      0.000000002660
  15      0.000000000205
  16     -0.000000007035
  17     -0.000000001658
  18     -0.000000000192
  19      0.000000003704
  20      0.000000000847
  21      0.000000000187
  22     -0.000000000283
  23     -0.000000002657
  24      0.000000000113
  25      0.000000000143
  26      0.000000000142
  27      0.000000000401
  28      0.000000001509
  29      0.000000000131
  30     -0.000000000144
  31     -0.000000000189
  32     -0.000000004222
  33     -0.000000000844
  34     -0.000000000770
  35     -0.000000001075
  36      0.000000000074
  37     -0.000000000244
  38     -0.000000000967
  39      0.000000002254
  40      0.000000000079
  41      0.000000000126
  42     -0.000000000043
  43      0.000000000234
  44     -0.000000000133
  45     -0.000000000158
  46      0.000000000173
  47      0.000000000008
  48      0.000000000092
  49     -0.000000000393
  50      0.000000000031
  51      0.000000000060
  52      0.000000000285
  53      0.000000000033
  54      0.000000000018
  55     -0.000000000040
  56      0.000000000060
  57     -0.000000000125
  58      0.000000001965
  59      0.000000000115
  60     -0.000000000497
  61     -0.000000000017
  62     -0.000000000919
  63      0.000000001553
  64     -0.000000000024
  65     -0.000000000262
  66     -0.000000001979
  67      0.000000000005
  68     -0.000000000128
  69      0.000000000134
  70     -0.000000000039
  71      0.000000000303
  72     -0.000000001950
  73     -0.000000000013
  74      0.000000000506
  75      0.000000000042
  76     -0.000000001970
  77     -0.000000001473
  78     -0.000000000155
  79      0.000000000186
  80     -0.000000001918
  81      0.000000000038
  82     -0.000000000030
  83     -0.000000000278
  84      0.000000000005
  85      0.000000000119
  86     -0.000000000952
  87     -0.000000000042
  88     -0.000000000156
  89     -0.000000000002
  90     -0.000000000132
  91      0.000000000323
  92     -0.000000000065
  93     -0.000000000050
  94      0.000000000272
  95      0.000000000034
  96      0.000000000007
  97      0.000000000036
  98     -0.000000000025
  99     -0.000000000012
 100      0.000000000378
 101     -0.000000000302
 102     -0.000000000006
 103     -0.000000000022
 104      0.000000002296
 105      0.000000000208
 106      0.000000000142
 107     -0.000000000068
 108      0.000000001851
 109     -0.000000001013
 110      0.000000000040
 111     -0.000000000074
 112      0.000000000015
 113      0.000000000067
 114     -0.000000000177
 115      0.000000000218
 116      0.000000000009
 117      0.000000000009
 118     -0.000000000673
 119     -0.000000000122
 120     -0.000000000030
 121      0.000000000005
 122     -0.000000000074
 123      0.000000000243
 124     -0.000000000031
 125      0.000000000006
 126      0.000000000016
 127      0.000000000084
 128      0.000000001014
 129      0.000000000334
 130     -0.000000000026
 131     -0.000000000031
 132     -0.000000001465
 133     -0.000000000498
 134     -0.000000000210
 135     -0.000000000162
 136      0.000000001344
 137      0.000000001421
 138      0.000000000062
 139      0.000000000059
 140     -0.000000000031
 141      0.000000000084
 142     -0.000000000150
 143     -0.000000000182
 144     -0.000000000023
 145     -0.000000000019
 146      0.000000000395
 147      0.000000000122
 148      0.000000000039
 149      0.000000000002
 150      0.000000000001
 151     -0.000000000171
 152     -0.000000000005
 153     -0.000000000009
 Ene=  -0.26101104594425E+03
 Spin= Alpha
 Occup=    1.000000
   1      0.252960327206
   2      0.008259004774
   3      0.006687329236
   4     -0.001399433583
   5     -0.000988524627
   6      0.000526476763
   7     -0.000246434868
   8      0.000045441492
   9     -0.000003868761
  10      0.000000060125
  11     -0.000000028845
  12     -0.000000710174
  13      0.000000141708
  14      0.000000239369
  15     -0.000001497868
  16     -0.000000500588
  17     -0.000000855591
  18      0.000005316202
  19      0.000000532644
  20      0.000001399475
  21     -0.000008574231
  22      0.000000459060
  23     -0.000000015936
  24      0.000000144914
  25     -0.000000173344
  26     -0.000000048166
  27     -0.000002419245
  28     -0.000000082843
  29     -0.000000201352
  30      0.000000261550
  31      0.000000109428
  32     -0.000000994720
  33     -0.000002455870
  34      0.000018420756
  35     -0.000000013936
  36      0.000000020100
  37      0.000000098495
  38     -0.000000138637
  39      0.000000028580
  40      0.000000134444
  41     -0.000000239763
  42      0.000000952461
  43     -0.000009405692
  44      0.000029740424
  45      0.000001964536
  46      0.000000095098
  47     -0.000000195975
  48     -0.000007435900
  49     -0.000000346626
  50      0.000000538021
  51     -0.000000547406
  52     -0.000000072163
  53      0.000000161673
  54      0.000000062007
  55      0.000000009996
  56      0.000000219235
  57     -0.000008809974
  58     -0.000011527173
  59      0.000000589938
  60      0.000000124951
  61     -0.000000750191
  62     -0.000022921613
  63     -0.000001063237
  64      0.000000384065
  65      0.000005081980
  66      0.000000322386
  67      0.000000366045
  68      0.000000152221
  69      0.000000051929
  70      0.000000212524
  71     -0.000008897414
  72     -0.000011946345
  73     -0.000000455671
  74      0.000000062228
  75     -0.000000782482
  76      0.000022858437
  77      0.000000659582
  78      0.000002268797
  79      0.000005055419
  80      0.000000328533
  81      0.000000367100
  82      0.000000200202
  83      0.000000074606
  84      0.000000969731
  85     -0.000009554891
  86      0.000030187411
  87     -0.000001876185
  88     -0.000000024043
  89     -0.000000385767
  90      0.000007489555
  91      0.000000153768
  92      0.000001211064
  93     -0.000000384046
  94      0.000000011725
  95     -0.000000120561
  96      0.000000028889
  97     -0.000000007905
  98     -0.000000357153
  99     -0.000002575077
 100     -0.000028132804
 101     -0.000000026643
 102      0.000000737665
 103      0.000000202246
 104      0.000000275555
 105      0.000004044898
 106     -0.000008962575
 107     -0.000002858106
 108     -0.000000211759
 109      0.000000061088
 110      0.000003945518
 111     -0.000002824880
 112      0.000000928658
 113     -0.000008844167
 114      0.000023664770
 115      0.000000048691
 116     -0.000002086702
 117      0.000000793773
 118     -0.000000244642
 119      0.000007240094
 120     -0.000000918295
 121      0.000000321784
 122     -0.000000023331
 123      0.000000011227
 124      0.000000230933
 125      0.000000815062
 126     -0.000000346555
 127     -0.000002466938
 128     -0.000028217473
 129      0.000000020160
 130     -0.000000677966
 131      0.000000047705
 132      0.000000488646
 133     -0.000001148152
 134     -0.000009515706
 135     -0.000002912285
 136     -0.000000440536
 137     -0.000000291977
 138      0.000001867689
 139      0.000004545161
 140      0.000000987706
 141     -0.000008792715
 142      0.000023295174
 143     -0.000000051200
 144      0.000001906152
 145      0.000001330190
 146      0.000000310836
 147     -0.000006742168
 148     -0.000002705181
 149      0.000000333557
 150      0.000000026718
 151      0.000000078763
 152      0.000000557805
 153     -0.000000643508
 Ene=  -0.30983754660776E+02
 Spin= Alpha
 Occup=    0.000000
   1     -0.000007946074
   2     -0.000002821743
   3      0.000017486554
   4      0.000011190363
   5     -0.000001607534
   6      0.000000380757
   7     -0.000000042747
   8     -0.000000012177
   9      0.000000002193
  10      0.000000424089
  11     -0.000000498612
  12     -0.000000000943
  13     -0.000000076223
  14      0.000000077895
  15      0.000000000070
  16      0.000000055918
  17     -0.000000056992
  18     -0.000000000265
  19     -0.000000029110
  20      0.000000028042
  21     -0.000000000217
  22      0.000000004589
  23      0.000000050096
  24     -0.000000008760
  25      0.000000008454
  26      0.000000005112
  27     -0.000000004008
  28     -0.000000033389
  29      0.000000003922
  30     -0.000000004663
  31     -0.000000001225
  32      0.000000025206
  33     -0.000000005295
  34      0.000000001548
  35      0.000000005336
  36     -0.000000001338
  37      0.000000001400
  38      0.000000005763
  39     -0.000000010602
  40     -0.000000000119
  41     -0.000000000760
  42      0.000000000506
  43     -0.000000002018
  44      0.000000003678
  45      0.000000000890
  46     -0.000000001234
  47     -0.000000000263
  48     -0.000000000539
  49      0.000000000191
  50      0.000000000278
  51     -0.000000000589
  52     -0.000000001564
  53     -0.000000000066
  54     -0.000000000102
  55      0.000000000431
  56     -0.000000000550
  57      0.000000000518
  58     -0.000000007251
  59     -0.000000001175
  60      0.000000003125
  61      0.000000000051
  62     -0.000000000822
  63     -0.000000003077
  64     -0.000000000554
  65      0.000000002937
  66      0.000000008148
  67      0.000000000576
  68      0.000000000645
  69     -0.000000000853
  70      0.000000000219
  71     -0.000000000697
  72      0.000000013057
  73      0.000000000472
  74     -0.000000003415
  75     -0.000000000028
  76      0.000000011877
  77      0.000000006940
  78      0.000000002063
  79     -0.000000001103
  80      0.000000006919
  81      0.000000000568
  82     -0.000000000081
  83      0.000000001406
  84     -0.000000000276
  85     -0.000000000494
  86      0.000000005090
  87      0.000000000241
  88      0.000000000659
  89      0.000000000232
  90      0.000000000735
  91     -0.000000001422
  92     -0.000000000120
  93      0.000000000249
  94     -0.000000001899
  95     -0.000000000087
  96     -0.000000000051
  97     -0.000000000501
  98     -0.000000000151
  99     -0.000000000845
 100     -0.000000000975
 101     -0.000000000086
 102      0.000000000608
 103     -0.000000000370
 104     -0.000000016903
 105      0.000000007067
 106     -0.000000003218
 107     -0.000000001167
 108     -0.000000013402
 109      0.000000007052
 110      0.000000001663
 111     -0.000000002045
 112     -0.000000000057
 113     -0.000000003007
 114      0.000000007985
 115     -0.000000002295
 116     -0.000000000909
 117      0.000000000497
 118      0.000000005665
 119      0.000000001462
 120     -0.000000000864
 121      0.000000000338
 122     -0.000000000471
 123     -0.000000001118
 124     -0.000000000257
 125      0.000000000417
 126      0.000000000095
 127     -0.000000000335
 128      0.000000000264
 129     -0.000000000397
 130      0.000000000321
 131      0.000000000228
 132      0.000000009549
 133      0.000000003098
 134     -0.000000000148
 135      0.000000002399
 136     -0.000000008853
 137     -0.000000009643
 138     -0.000000001195
 139     -0.000000002605
 140      0.000000000146
 141      0.000000001084
 142     -0.000000001000
 143      0.000000001975
 144     -0.000000000722
 145     -0.000000000580
 146     -0.000000003097
 147     -0.000000000843
 148      0.000000000344
 149     -0.000000000208
 150     -0.000000000736
 151      0.000000000467
 152     -0.000000000008
 153      0.000000000510
 Ene=  -0.30983754660776E+02
 Spin= Alpha
 Occup=    1.000000
   1      0.236898450022
   2      0.084124088979
   3     -0.521327960470
   4     -0.333620921537
   5      0.047924134354
   6     -0.011348317260
   7      0.001266669370
   8      0.000429978819
   9     -0.000071271104
  10      0.000000623323
  11     -0.000004600107
  12     -0.000001263507
  13      0.000001236682
  14      0.000002993456
  15     -0.000019809645
  16     -0.000002391412
  17     -0.000002429773
  18      0.000012444740
  19      0.000001008348
  20      0.000000319433
  21      0.000006580242
  22     -0.000284801479
  23     -0.000010253325
  24     -0.000025290965
  25     -0.000169510516
  26     -0.000048800277
  27      0.000222220559
  28      0.000010904719
  29      0.000018433471
  30      0.000077560720
  31      0.000022857274
  32     -0.000001073552
  33      0.000003442683
  34     -0.000017362275
  35      0.000000200282
  36      0.000000384118
  37     -0.000002479383
  38     -0.000000519675
  39     -0.000000035527
  40      0.000000352345
  41     -0.000000880800
  42     -0.000004724176
  43      0.000045128538
  44     -0.000151385147
  45     -0.000014058356
  46     -0.000000851964
  47      0.000001059572
  48      0.000020487216
  49      0.000001596119
  50     -0.000002816619
  51      0.000010157300
  52      0.000000837400
  53     -0.000000966131
  54      0.000000506763
  55      0.000000001248
  56      0.000006612902
  57     -0.000000300408
  58     -0.000112433924
  59      0.000025680448
  60      0.000001144485
  61     -0.000000481112
  62      0.000234093859
  63      0.000010691628
  64     -0.000006063648
  65     -0.000054763893
  66     -0.000004632555
  67      0.000004332366
  68     -0.000000970568
  69     -0.000000098265
  70      0.000006578700
  71     -0.000000699814
  72     -0.000114711844
  73     -0.000025180111
  74     -0.000000907068
  75     -0.000002535003
  76     -0.000232676883
  77     -0.000006362536
  78     -0.000025913516
  79     -0.000053825936
  80     -0.000002191726
  81     -0.000012376253
  82      0.000000088521
  83     -0.000000480707
  84     -0.000004587686
  85      0.000044300133
  86     -0.000148925786
  87      0.000014320714
  88      0.000000319961
  89      0.000002088311
  90     -0.000019623219
  91     -0.000000191433
  92     -0.000004233356
  93      0.000010664783
  94      0.000000491291
  95      0.000003052761
  96      0.000000002759
  97      0.000000074253
  98      0.000000012570
  99      0.000019537268
 100      0.000004893830
 101     -0.000000110138
 102      0.000002735021
 103      0.000001265836
 104      0.000000734523
 105     -0.000064444171
 106      0.000045615279
 107      0.000004685331
 108     -0.000000063802
 109     -0.000000197052
 110     -0.000003062591
 111      0.000010996619
 112     -0.000002479203
 113      0.000025774521
 114     -0.000089376620
 115     -0.000000164744
 116      0.000005992195
 117     -0.000000659628
 118      0.000000716138
 119     -0.000028922759
 120      0.000006165447
 121      0.000000220591
 122      0.000000021661
 123      0.000000086068
 124      0.000000205765
 125     -0.000000461089
 126      0.000000092053
 127      0.000020068804
 128      0.000004157723
 129      0.000000033438
 130     -0.000002525829
 131      0.000000771488
 132     -0.000004289692
 133      0.000051242704
 134      0.000062645049
 135      0.000004227178
 136      0.000000646104
 137      0.000000892049
 138      0.000003058709
 139     -0.000010518058
 140     -0.000001369374
 141      0.000026116522
 142     -0.000091513558
 143      0.000000719180
 144     -0.000004922877
 145     -0.000002267391
 146     -0.000001894830
 147      0.000025831430
 148      0.000014592158
 149      0.000000301742
 150      0.000000019079
 151      0.000000035797
 152     -0.000000419539
 153      0.000000132557
 Ene=  -0.26671650664758E+02
 Spin= Alpha
 Occup=    0.625198
   1      0.000001426113
   2      0.000002141533
   3     -0.000107991517
   4     -0.000167760388
   5      0.000216613923
   6      0.000175738141
   7     -0.000219039553
   8      0.001304866670
   9      0.000016816427
  10     -0.156477213708
  11     -0.536416659314
  12      0.129232596350
  13      0.002134462782
  14      0.007654409421
  15     -0.001950126142
  16     -0.004465587804
  17     -0.015302491222
  18      0.003607974002
  19      0.002045462655
  20      0.006559915139
  21     -0.001401781777
  22     -0.000031219964
  23     -0.000000448424
  24     -0.000001280262
  25      0.000015822002
  26     -0.000045061612
  27      0.000145040165
  28     -0.000002543881
  29      0.000001419288
  30     -0.000142084984
  31      0.000370750967
  32     -0.002541681090
  33     -0.001416491910
  34      0.000854175969
  35      0.000021083183
  36     -0.000093880879
  37      0.000006281128
  38     -0.000015789412
  39     -0.000008635673
  40     -0.000000441491
  41     -0.000003725831
  42     -0.000012839305
  43      0.000106528724
  44      0.000009960875
  45     -0.000071078377
  46      0.000018151655
  47     -0.000003120888
  48      0.000027051558
  49     -0.000178226257
  50      0.000053438139
  51      0.000036720792
  52      0.000045577989
  53     -0.000015586865
  54      0.000001462273
  55     -0.000003019165
  56      0.000033782813
  57     -0.000096418693
  58      0.000923550632
  59      0.000050746570
  60     -0.000023138679
  61      0.000008141032
  62     -0.000533867748
  63      0.000396090516
  64     -0.000111564338
  65     -0.000219573466
  66      0.000059386066
  67     -0.000005566017
  68     -0.000001974193
  69      0.000001763974
  70     -0.000024500960
  71      0.000144196815
  72     -0.001420509818
  73     -0.000000373234
  74     -0.000023123827
  75     -0.000007804668
  76     -0.001117691746
  77      0.000384891975
  78     -0.000207620050
  79      0.000119588621
  80     -0.000071388653
  81      0.000036958812
  82      0.000003958867
  83      0.000000489992
  84      0.000002578419
  85      0.000002177364
  86     -0.000407146562
  87     -0.000047955193
  88      0.000019966741
  89     -0.000009738060
  90     -0.000042719314
  91     -0.000176581150
  92      0.000019221126
  93     -0.000025618713
  94     -0.000042184603
  95     -0.000000338782
  96     -0.000001727643
  97     -0.000005830531
  98     -0.000089625687
  99      0.000002483915
 100     -0.000647660382
 101      0.000012507210
 102      0.000188005520
 103     -0.000043528597
 104      0.000179265956
 105      0.000960477465
 106     -0.000437605212
 107     -0.000305726836
 108     -0.000028714658
 109      0.000021763469
 110      0.000487713195
 111     -0.000345645095
 112      0.000048115698
 113     -0.000459642693
 114      0.001134238694
 115      0.000011462033
 116     -0.000145176703
 117      0.000109053850
 118     -0.000071939831
 119      0.000124313064
 120     -0.000100636743
 121      0.000065884386
 122     -0.000009676284
 123      0.000004840996
 124     -0.000039030994
 125      0.000112248142
 126      0.000050260921
 127      0.000160392067
 128     -0.000578958820
 129      0.000012566837
 130      0.000056949991
 131      0.000069851035
 132      0.000132351316
 133      0.001275610418
 134      0.000391840713
 135      0.000235542784
 136      0.000039245092
 137      0.000039163617
 138     -0.000120622887
 139     -0.000403525006
 140     -0.000033366607
 141      0.000315039743
 142     -0.000799004388
 143      0.000018241175
 144     -0.000058646538
 145     -0.000126851464
 146     -0.000077407873
 147     -0.000095396263
 148      0.000222678454
 149     -0.000049133767
 150      0.000001252589
 151      0.000002466969
 152      0.000016469905
 153      0.000084788591
 Ene=  -0.26671650664758E+02
 Spin= Alpha
 Occup=    0.374802
   1      0.000000526321
   2      0.000000259497
   3     -0.000026969107
   4     -0.000042153557
   5      0.000054319102
   6      0.000044301129
   7     -0.000055209495
   8      0.000329069996
   9      0.000004197163
  10      0.485324082394
  11     -0.167579932712
  12      0.047493848480
  13     -0.006634061509
  14      0.002401114074
  15     -0.000692041497
  16      0.013858175993
  17     -0.004780636911
  18      0.001335804523
  19     -0.006327921096
  20      0.002035557379
  21     -0.000553088414
  22     -0.000008118232
  23     -0.000000568267
  24      0.000003496317
  25      0.000005161572
  26     -0.000015952609
  27      0.000038809463
  28      0.000002740120
  29     -0.000033626786
  30     -0.000045408202
  31      0.000131585218
  32      0.007185996774
  33     -0.000188139485
  34      0.000527297044
  35     -0.000033181279
  36     -0.000039233261
  37     -0.000002342213
  38      0.000025856661
  39      0.000005367381
  40      0.000000768448
  41      0.000000907733
  42      0.000020221913
  43     -0.000134269450
  44     -0.000635916391
  45      0.000163267218
  46      0.000014789181
  47     -0.000004589407
  48      0.000048301810
  49     -0.000054212731
  50     -0.000035113957
  51     -0.000094362114
  52      0.000005579765
  53      0.000015230452
  54      0.000000309959
  55     -0.000000156862
  56     -0.000081289003
  57      0.000344591461
  58     -0.003362720244
  59     -0.000060809003
  60     -0.000008057423
  61     -0.000022530774
  62      0.002368787544
  63      0.000248882761
  64     -0.000027152202
  65      0.000455330509
  66      0.000062621198
  67     -0.000021718798
  68      0.000021239037
  69      0.000005685562
  70      0.000083610280
  71     -0.000332532200
  72      0.003237321981
  73     -0.000075292544
  74     -0.000013958189
  75      0.000015710179
  76      0.002213237420
  77      0.000214042122
  78      0.000168051834
  79     -0.000473116496
  80     -0.000048642362
  81     -0.000088177738
  82     -0.000015218144
  83     -0.000008783510
  84     -0.000022937422
  85      0.000161727005
  86      0.000535569270
  87      0.000168294868
  88      0.000012093718
  89      0.000017108744
  90      0.000026985046
  91     -0.000067140543
  92      0.000051854893
  93      0.000093852182
  94     -0.000011898199
  95      0.000032703065
  96     -0.000002618671
  97     -0.000001239351
  98     -0.000029833341
  99     -0.000007502731
 100     -0.000166721452
 101     -0.000051029614
 102      0.000058848622
 103     -0.000018163666
 104     -0.000558056249
 105      0.000337450215
 106     -0.000159782039
 107     -0.000103826748
 108      0.000008144164
 109     -0.000026490706
 110      0.000166422222
 111     -0.000119968607
 112      0.000016333416
 113     -0.000155904580
 114      0.000385636991
 115     -0.000029865752
 116     -0.000050051472
 117      0.000037205312
 118      0.000201169497
 119      0.000044555461
 120     -0.000033665803
 121      0.000021718649
 122      0.000030067873
 123     -0.000016712507
 124     -0.000012875319
 125      0.000038073378
 126      0.000019874127
 127      0.000048729696
 128     -0.000142318763
 129     -0.000051495010
 130      0.000023923381
 131      0.000023721710
 132     -0.000572387503
 133      0.000405605876
 134      0.000128819126
 135      0.000090294796
 136      0.000006832461
 137     -0.000023423145
 138     -0.000047396301
 139     -0.000152547260
 140     -0.000012668379
 141      0.000119384492
 142     -0.000301160711
 143     -0.000027177316
 144     -0.000024714248
 145     -0.000047173590
 146      0.000198262808
 147     -0.000015770943
 148      0.000083565506
 149     -0.000014621696
 150     -0.000026628405
 151     -0.000026046491
 152      0.000003766715
 153      0.000029588883
 Ene=  -0.26215263533877E+02
 Spin= Alpha
 Occup=    0.625471
   1     -0.000000042779
   2      0.000000494351
   3     -0.000001971812
   4     -0.000002621998