[Molden Format]
[Title]
generated by TRESC, imaginary part2 of MOs of job FeCO4
 
[Atoms] AU
Fe   1  26   -0.0540389823    0.5191872865    1.0066466406
 O   2   8    0.2117534346    0.3334081356    6.6028244914
 C   3   6    0.1037850741    0.4413681813    4.4353204988
 C   4   6   -0.1488590074    0.1539081662   -2.4057183154
 O   5   8   -0.2001917131   -0.1354255122   -4.5586307888
 C   6   6   -3.2515199836    1.5320722906    1.0822035548
 O   7   8   -5.2145614824    2.4961101455    1.1140656578
 C   8   6    2.7435656063    2.3618413346    0.8253578566
 O   9   8    4.3670403525    3.8224610068    0.7033934295
[GTO]
  1 0
 s  6 1.0
    60923.6406430000        0.0045980778
     9147.8893982000        0.0193220084
     2081.3505927000        0.0775531983
      587.5597706700        0.2480208186
      191.0904399000        0.4675986791
       65.7327301100        0.3373548125
 s  1 1.0
      127.2589192800        1.0000000000
 s  1 1.0
       14.8309130100        1.0000000000
 s  1 1.0
        6.0653307400        1.0000000000
 s  1 1.0
       10.4499437100        1.0000000000
 s  1 1.0
        1.7245228000        1.0000000000
 s  1 1.0
        0.7177217700        1.0000000000
 s  1 1.0
        0.0914498300        1.0000000000
 s  1 1.0
        0.0337066900        1.0000000000
 p  5 1.0
      773.4375099500        0.0106099056
      182.1514971400        0.0713199466
       57.5472727600        0.2648513978
       20.6149889400        0.5090783315
        7.6348557900        0.3293226861
 p  1 1.0
        3.8719328000        1.0000000000
 p  1 1.0
        1.4924724100        1.0000000000
 p  1 1.0
        0.5606128500        1.0000000000
 d  4 1.0
       38.9681334200        0.0334987321
       10.8000670800        0.1771399682
        3.6136458000        0.4404450273
        1.2129967900        0.5720563253
 d  1 1.0
        0.3652439300        1.0000000000
 p  1 1.0
        0.1349150000        1.0000000000
 f  1 1.0
        1.5980000000        1.0000000000
 
  2 0
 s  5 1.0
     2266.1767785000        0.0060711540
      340.8701019100        0.0417308970
       77.3631351700        0.1850777598
       21.4796449400        0.4668774046
        6.6589433100        0.4435718061
 s  1 1.0
        0.8097597600        1.0000000000
 s  1 1.0
        0.2553077200        1.0000000000
 p  3 1.0
       17.7215043200        0.0628680198
        3.8635505400        0.3334973703
        1.0480920900        0.7412421661
 p  1 1.0
        0.2764154400        1.0000000000
 d  1 1.0
        1.2000000000        1.0000000000
 
  3 0
 s  5 1.0
     1238.4016938000        0.0059599745
      186.2900499200        0.0422621111
       42.2511763500        0.1866575214
       11.6765579300        0.4675815865
        3.5930506500        0.4422897287
 s  1 1.0
        0.4024514700        1.0000000000
 s  1 1.0
        0.1309018300        1.0000000000
 p  3 1.0
        9.4680970600        0.0570294585
        2.0103545100        0.3130471495
        0.5477100500        0.7605135301
 p  1 1.0
        0.1526861400        1.0000000000
 d  1 1.0
        0.8000000000        1.0000000000
 
  4 0
 s  5 1.0
     1238.4016938000        0.0059599745
      186.2900499200        0.0422621111
       42.2511763500        0.1866575214
       11.6765579300        0.4675815865
        3.5930506500        0.4422897287
 s  1 1.0
        0.4024514700        1.0000000000
 s  1 1.0
        0.1309018300        1.0000000000
 p  3 1.0
        9.4680970600        0.0570294585
        2.0103545100        0.3130471495
        0.5477100500        0.7605135301
 p  1 1.0
        0.1526861400        1.0000000000
 d  1 1.0
        0.8000000000        1.0000000000
 
  5 0
 s  5 1.0
     2266.1767785000        0.0060711540
      340.8701019100        0.0417308970
       77.3631351700        0.1850777598
       21.4796449400        0.4668774046
        6.6589433100        0.4435718061
 s  1 1.0
        0.8097597600        1.0000000000
 s  1 1.0
        0.2553077200        1.0000000000
 p  3 1.0
       17.7215043200        0.0628680198
        3.8635505400        0.3334973703
        1.0480920900        0.7412421661
 p  1 1.0
        0.2764154400        1.0000000000
 d  1 1.0
        1.2000000000        1.0000000000
 
  6 0
 s  5 1.0
     1238.4016938000        0.0059599745
      186.2900499200        0.0422621111
       42.2511763500        0.1866575214
       11.6765579300        0.4675815865
        3.5930506500        0.4422897287
 s  1 1.0
        0.4024514700        1.0000000000
 s  1 1.0
        0.1309018300        1.0000000000
 p  3 1.0
        9.4680970600        0.0570294585
        2.0103545100        0.3130471495
        0.5477100500        0.7605135301
 p  1 1.0
        0.1526861400        1.0000000000
 d  1 1.0
        0.8000000000        1.0000000000
 
  7 0
 s  5 1.0
     2266.1767785000        0.0060711540
      340.8701019100        0.0417308970
       77.3631351700        0.1850777598
       21.4796449400        0.4668774046
        6.6589433100        0.4435718061
 s  1 1.0
        0.8097597600        1.0000000000
 s  1 1.0
        0.2553077200        1.0000000000
 p  3 1.0
       17.7215043200        0.0628680198
        3.8635505400        0.3334973703
        1.0480920900        0.7412421661
 p  1 1.0
        0.2764154400        1.0000000000
 d  1 1.0
        1.2000000000        1.0000000000
 
  8 0
 s  5 1.0
     1238.4016938000        0.0059599745
      186.2900499200        0.0422621111
       42.2511763500        0.1866575214
       11.6765579300        0.4675815865
        3.5930506500        0.4422897287
 s  1 1.0
        0.4024514700        1.0000000000
 s  1 1.0
        0.1309018300        1.0000000000
 p  3 1.0
        9.4680970600        0.0570294585
        2.0103545100        0.3130471495
        0.5477100500        0.7605135301
 p  1 1.0
        0.1526861400        1.0000000000
 d  1 1.0
        0.8000000000        1.0000000000
 
  9 0
 s  5 1.0
     2266.1767785000        0.0060711540
      340.8701019100        0.0417308970
       77.3631351700        0.1850777598
       21.4796449400        0.4668774046
        6.6589433100        0.4435718061
 s  1 1.0
        0.8097597600        1.0000000000
 s  1 1.0
        0.2553077200        1.0000000000
 p  3 1.0
       17.7215043200        0.0628680198
        3.8635505400        0.3334973703
        1.0480920900        0.7412421661
 p  1 1.0
        0.2764154400        1.0000000000
 d  1 1.0
        1.2000000000        1.0000000000
 
[5D]
[7F]
[9G]
[MO]
 Ene=   0.90588833492035E+00
 Spin= Alpha
 Occup=    0.000000
   1     -0.000003488231
   2     -0.000001299694
   3     -0.000018902050
   4     -0.000073204592
   5      0.000081831723
   6      0.000119386112
   7     -0.000433422361
   8      0.007314930242
   9     -0.002305852079
  10     -0.005047784195
  11     -0.000118636618
  12     -0.000089397426
  13      0.003255423419
  14      0.000068669476
  15     -0.000023044793
  16      0.025377441687
  17      0.000687378452
  18      0.000752062776
  19     -0.058631977156
  20     -0.001836674502
  21     -0.002121870626
  22      0.025080968427
  23      0.057492025562
  24     -0.387522700292
  25      0.017491144067
  26     -0.012339748125
  27     -0.028315989579
  28     -0.070707161306
  29      0.476839728653
  30     -0.021565915844
  31      0.014831845822
  32      0.898805641263
  33      0.030068682286
  34      0.035326383755
  35     -0.002205151885
  36     -0.000182799389
  37     -0.000228979788
  38     -0.000164985433
  39     -0.000059589051
  40      0.000016391059
  41     -0.000039268423
  42     -0.002241513523
  43      0.001887105434
  44     -0.054154938637
  45      0.158121851734
  46     -0.063026450822
  47      0.488857312230
  48     -0.263189854304
  49      0.068419566232
  50     -0.558376443783
  51     -0.001128552558
  52     -0.000182646537
  53      0.000407536467
  54     -0.000026042024
  55      0.000028659984
  56     -0.013056696688
  57      0.022958364931
  58     -0.628504223185
  59     -0.053169523690
  60      0.004870059984
  61     -0.047133694451
  62      0.483752893492
  63      0.007069545977
  64      0.093147042077
  65     -0.042898214879
  66      0.002107811907
  67     -0.035001452469
  68     -0.002506138667
  69     -0.002137121636
  70      0.012533949001
  71     -0.019522629509
  72      0.616870242537
  73     -0.055683304754
  74     -0.008818608761
  75      0.042566845110
  76      0.475277594902
  77      0.028526569982
  78     -0.054838769909
  79      0.046050895793
  80      0.007458536162
  81     -0.028055237928
  82      0.005951245845
  83      0.000570924976
  84      0.002324607515
  85     -0.002095678568
  86      0.049831240970
  87      0.190511007337
  88      0.076555667748
  89     -0.475358861457
  90     -0.299454440918
  91     -0.089934356532
  92      0.536590320837
  93      0.001083379493
  94     -0.000039329592
  95      0.000517545200
  96      0.000027781571
  97      0.000035485693
  98      0.000171982500
  99     -0.001020776744
 100      0.001901307158
 101     -0.058087387636
 102     -0.002443355470
 103     -0.002232346121
 104      0.003589934568
 105      0.001001800672
 106     -0.000152491005
 107     -0.005475052360
 108      0.037646386351
 109      0.036078049458
 110     -0.000166143470
 111      0.002821625267
 112      0.000178587192
 113     -0.000830330890
 114      0.000522964651
 115      0.090365784432
 116      0.003778515539
 117      0.001662492647
 118     -0.082082872593
 119     -0.004036138659
 120     -0.000883431949
 121     -0.000230351247
 122     -0.003486603970
 123      0.005854977539
 124     -0.000395833258
 125      0.000095809831
 126      0.000368666223
 127     -0.001446826434
 128      0.007611972399
 129     -0.057166796189
 130     -0.001209544877
 131     -0.001500362145
 132      0.003985728371
 133     -0.004072485002
 134     -0.003467491589
 135      0.000470494705
 136     -0.045839282557
 137      0.025145491124
 138     -0.002808617909
 139     -0.000487368947
 140      0.000275682259
 141     -0.001189886823
 142      0.001254036337
 143      0.086987052210
 144      0.002195467035
 145      0.000573018411
 146     -0.079059036391
 147     -0.000513713464
 148      0.001184386414
 149     -0.000616467750
 150      0.001623856748
 151      0.006489581686
 152     -0.000214294119
 153      0.000297507017
 Ene=   0.90948477395938E+00
 Spin= Alpha
 Occup=    0.000000
   1      0.000002269058
   2      0.000001037384
   3     -0.000016568976
   4     -0.000028515549
   5      0.000019889969
   6      0.000072642375
   7     -0.000075556148
   8      0.000647421214
   9     -0.000230576897
  10      0.000016031330
  11     -0.000005072195
  12      0.000023712928
  13     -0.000156288280
  14      0.000004290528
  15     -0.000062477691
  16      0.000004476921
  17      0.000016816047
  18     -0.000063972645
  19      0.000408028667
  20     -0.000017942337
  21      0.000196128854
  22     -0.000209446636
  23      0.003747270828
  24      0.000317095077
  25      0.000030228565
  26      0.000146463943
  27      0.000469606655
  28     -0.004481403635
  29     -0.000316294171
  30     -0.000116002487
  31     -0.000193421812
  32      0.000069719570
  33      0.000119705007
  34     -0.000361700191
  35     -0.000004006457
  36     -0.000000234706
  37      0.000002171872
  38      0.000003818961
  39     -0.000012865366
  40      0.000002093110
  41     -0.000003419455
  42      0.000008998177
  43     -0.000058416995
  44     -0.000113506364
  45      0.000741397178
  46     -0.003651473788
  47     -0.000363278594
  48     -0.001018285898
  49      0.003871760159
  50      0.000369476989
  51      0.000006126541
  52     -0.000058981725
  53     -0.000005034153
  54      0.000000521172
  55     -0.000007429386
  56     -0.000051576440
  57      0.000054717940
  58     -0.000805056803
  59     -0.000092770655
  60      0.000673941962
  61      0.000043160889
  62      0.000951907932
  63     -0.000462735764
  64      0.000016352543
  65     -0.000170543374
  66      0.000526640471
  67      0.000053424290
  68      0.000063682726
  69     -0.000098750669
  70     -0.000026256246
  71      0.000350644707
  72     -0.000663655786
  73      0.000179598657
  74     -0.000668180662
  75     -0.000056072479
  76     -0.000637965314
  77      0.000490456427
  78     -0.000105840626
  79     -0.000061433555
  80      0.000517668509
  81      0.000072087899
  82      0.000030442612
  83      0.000158306961
  84     -0.000023689220
  85      0.000129960490
  86     -0.000297334410
  87     -0.000009957804
  88      0.003682664316
  89      0.000242061228
  90     -0.000004360119
  91     -0.003920715378
  92     -0.000211926506
  93      0.000003505953
  94     -0.000058681719
  95     -0.000011123434
  96      0.000002619193
  97      0.000003143089
  98      0.000034406888
  99     -0.000164897712
 100      0.000694223429
 101     -0.000912783059
 102     -0.000131382370
 103      0.000013012859
 104      0.000995299133
 105      0.000453632861
 106     -0.000204992078
 107     -0.000079387115
 108      0.000450226371
 109     -0.000263965843
 110      0.000054300163
 111     -0.000011243308
 112      0.000024291849
 113     -0.000105881351
 114      0.000110619918
 115      0.003092414506
 116      0.000210233001
 117     -0.000225835783
 118     -0.003462874753
 119     -0.000338671112
 120      0.000346053980
 121     -0.000002339618
 122     -0.000062442994
 123      0.000029180669
 124     -0.000008842776
 125     -0.000002683594
 126      0.000028521915
 127     -0.000151547395
 128      0.000565982107
 129      0.001004939451
 130      0.000090915273
 131      0.000101228357
 132     -0.001603545856
 133     -0.000310094924
 134     -0.000360722568
 135     -0.000108595997
 136      0.000262898083
 137      0.000372239881
 138      0.000003767200
 139      0.000045342483
 140      0.000021511332
 141     -0.000096460964
 142      0.000101059310
 143     -0.003564697909
 144     -0.000090136569
 145     -0.000503502736
 146      0.004333729291
 147      0.000160856804
 148      0.000678213845
 149      0.000000817578
 150     -0.000038555437
 151     -0.000027619357
 152     -0.000005356540
 153     -0.000005303175
 Ene=   0.90948477395959E+00
 Spin= Alpha
 Occup=    0.000000
   1     -0.000005134572
   2     -0.000002340557
   3      0.000053462292
   4      0.000107802948
   5     -0.000086482032
   6     -0.000246689582
   7      0.000350871747
   8     -0.002952702467
   9      0.001249695797
  10      0.002217661106
  11     -0.051742344226
  12     -0.007286117937
  13     -0.002016371539
  14      0.046863535304
  15      0.006724442766
  16     -0.007649707786
  17      0.179398462122
  18      0.025180676399
  19      0.010087328893
  20     -0.238912037883
  21     -0.033801276704
  22     -0.000278842831
  23     -0.000400090259
  24     -0.003948956376
  25     -0.019163581406
  26      0.069994191411
  27     -0.000377651934
  28     -0.006681159957
  29     -0.006058881901
  30     -0.038761421059
  31      0.135179106258
  32     -0.093308207649
  33      2.234754657831
  34      0.311458935808
  35      0.000367450718
  36     -0.003585002660
  37     -0.000474699138
  38      0.000142466664
  39     -0.000422495831
  40     -0.004699080593
  41     -0.002058127113
  42      0.000025821304
  43     -0.000126478117
  44      0.000894224871
  45      0.004678438910
  46     -0.133611186871
  47     -0.017114624106
  48     -0.003397963383
  49      0.116545123768
  50      0.014437245277
  51      0.000141038187
  52     -0.001933226997
  53      0.000059600394
  54      0.002094176225
  55     -0.007799359574
  56      0.000196061524
  57     -0.001081688583
  58      0.002585850768
  59      0.001410814466
  60     -0.020485065858
  61     -0.002874986446
  62     -0.004937523291
  63      0.039930215945
  64      0.005990408554
  65     -0.002446278484
  66      0.037080493860
  67      0.008343369367
  68      0.021575223492
  69     -0.071256593498
  70      0.000232834258
  71     -0.001141335818
  72      0.005882497069
  73      0.000246026155
  74     -0.021225570676
  75     -0.002784427867
  76      0.003859914473
  77      0.041148318940
  78      0.006272369648
  79      0.002895644823
  80     -0.031914434740
  81     -0.001259210814
  82      0.019426169513
  83     -0.074471595412
  84      0.000037812069
  85     -0.000154211788
  86      0.001205871172
  87      0.007291104141
  88     -0.129974293277
  89     -0.018358857053
  90     -0.007514186443
  91      0.112513135210
  92      0.015800844278
  93     -0.000186777332
  94      0.002366286210
  95      0.000686122742
  96      0.002224749700
  97     -0.007601362257
  98      0.064067730836
  99     -0.168231330053
 100      1.855382711036
 101      0.003511184451
 102     -0.249208800328
 103      0.123153155652
 104     -0.022577362574
 105      1.371547947023
 106     -0.665132328970
 107     -0.068766107411
 108     -0.002499934173
 109      0.002314854913
 110      0.080599365982
 111     -0.108523185237
 112      0.028699524864
 113     -0.109668636972
 114      0.266120265720
 115     -0.007688780050
 116      0.435180301713
 117     -0.164979718033
 118      0.013677419260
 119     -0.779938845383
 120      0.326731546409
 121     -0.003103818225
 122     -0.000215654894
 123      0.000108787188
 124      0.003732663491
 125     -0.003998017800
 126     -0.064476596214
 127      0.170147373482
 128     -1.863474154934
 129      0.015762371727
 130     -0.206728013458
 131     -0.187006806209
 132     -0.085220204701
 133      1.140679127342
 134      1.016195181211
 135      0.068888706224
 136      0.010643927900
 137      0.009816370161
 138     -0.011687477355
 139     -0.134709568903
 140     -0.029020906991
 141      0.111107338609
 142     -0.267608550262
 143     -0.026851445246
 144      0.373555698540
 145      0.281079292584
 146      0.048117549663
 147     -0.661761099896
 148     -0.532016283869
 149      0.003125505674
 150      0.000439200702
 151      0.000372939696
 152     -0.001039575088
 153     -0.005314255067
 Ene=   0.91570960472808E+00
 Spin= Alpha
 Occup=    0.000000
   1      0.000002775936
   2      0.000001236907
   3     -0.000018173403
   4     -0.000025735773
   5      0.000016632380
   6      0.000075660347
   7     -0.000068039639
   8      0.001099864586
   9      0.000136684865
  10      0.000014186990
  11      0.000191815765
  12      0.000013715310
  13     -0.000013844302
  14     -0.000195125685
  15     -0.000012371467
  16     -0.000047394300
  17     -0.000528596228
  18     -0.000042947629
  19      0.000063225946
  20      0.000372184050
  21      0.000021115320
  22      0.024257016489
  23     -0.328652592590
  24     -0.044703573414
  25     -0.010032003376
  26     -0.015733112543
  27     -0.031509432174
  28      0.419426793990
  29      0.057047231423
  30      0.012919008962
  31      0.020704977453
  32     -0.000993425619
  33     -0.001801422791
  34      0.000722208602
  35     -0.000006176067
  36      0.000010509435
  37     -0.000036630122
  38     -0.000143334074
  39      0.000518373891
  40     -0.000043630173
  41      0.000016867073
  42     -0.000004972204
  43      0.000025830880
  44      0.000412429830
  45     -0.013601740018
  46      0.306070987872
  47      0.042023711920
  48      0.015059194128
  49     -0.334117437014
  50     -0.045867299284
  51     -0.000423115657
  52      0.005774398319
  53      0.000812701885
  54      0.000315050711
  55     -0.000228579706
  56      0.000079911935
  57     -0.000442411694
  58      0.001647145795
  59      0.003341268420
  60     -0.073158006389
  61     -0.010117788963
  62     -0.005427085746
  63      0.085312863187
  64      0.011832254924
  65      0.003798280917
  66     -0.049476470519
  67     -0.006926154310
  68     -0.002769542194
  69      0.001729999108
  70     -0.000001501893
  71     -0.000100172650
  72     -0.000122436895
  73     -0.002974322702
  74      0.072919265984
  75      0.010096416042
  76      0.003931012009
  77     -0.085512781147
  78     -0.011699765550
  79      0.003637372034
  80     -0.048928505554
  81     -0.006541632406
  82     -0.000546971044
  83     -0.005957019113
  84     -0.000010408637
  85      0.000025356382
  86      0.000210394722
  87      0.012967883359
  88     -0.304629214957
  89     -0.041720947257
  90     -0.014108690030
  91      0.332728092444
  92      0.045527279055
  93     -0.000430924228
  94      0.005707140966
  95      0.000760095574
  96      0.000016667824
  97      0.000806637372
  98     -0.000304996027
  99      0.000989791296
 100     -0.004736736670
 101      0.067779632486
 102      0.004040986205
 103      0.002550089090
 104     -0.016336846619
 105     -0.004363601235
 106     -0.000239619710
 107      0.000859475467
 108     -0.040846903492
 109      0.027413814664
 110     -0.002968843545
 111     -0.000395920346
 112     -0.000136737216
 113      0.000483306707
 114     -0.000268597828
 115     -0.233024960398
 116     -0.010418068163
 117     -0.009719576279
 118      0.225905263137
 119      0.011768567854
 120      0.009241784679
 121     -0.000203330215
 122      0.007289889382
 123     -0.003216270454
 124      0.000378031015
 125      0.000223659925
 126      0.000161363571
 127     -0.000121481749
 128      0.001350290633
 129     -0.067875724912
 130     -0.001267479984
 131     -0.002266635733
 132      0.016334746183
 133     -0.000571275799
 134      0.000714177311
 135      0.004728833885
 136     -0.031699070875
 137     -0.037427822596
 138      0.000508360561
 139     -0.002438873204
 140      0.000064637450
 141     -0.000097732474
 142     -0.000715311866
 143      0.232942902403
 144      0.007222008963
 145      0.010286932960
 146     -0.225837728268
 147     -0.005735558471
 148     -0.009526885210
 149     -0.000793115695
 150      0.006120828883
 151      0.005047832786
 152      0.000017634092
 153      0.000507880120
 Ene=   0.91570960472840E+00
 Spin= Alpha
 Occup=    0.000000
   1      0.000000393809
   2      0.000000071560
   3      0.000007414297
   4      0.000025342676
   5     -0.000024492398
   6     -0.000045869391
   7      0.000119010044
   8     -0.001065732107
   9      0.000221651708
  10      0.000058975830
  11     -0.000500454096
  12     -0.000086642128
  13     -0.000049025843
  14      0.000475142155
  15      0.000087275189
  16     -0.000224867907
  17      0.001594415474
  18      0.000252201191
  19      0.000369958610
  20     -0.001767164320
  21     -0.000232363460
  22      0.022710434067
  23     -0.308356255999
  24     -0.040505352641
  25     -0.009750881656
  26     -0.013839757389
  27     -0.029016166197
  28      0.393545558256
  29      0.051828038283
  30      0.012148934296
  31      0.018379002302
  32     -0.005410847596
  33      0.014840940162
  34      0.001823453708
  35      0.000013673352
  36     -0.000087144436
  37     -0.000048405897
  38     -0.000137873427
  39      0.000478124970
  40     -0.000053984183
  41      0.000016658497
  42      0.000025877960
  43     -0.000064873450
  44      0.000454897902
  45     -0.013285620005
  46      0.284962606015
  47      0.037292778068
  48      0.015153255042
  49     -0.311410825278
  50     -0.040700665197
  51     -0.000386069738
  52      0.005366943045
  53      0.000754795277
  54      0.000320376913
  55     -0.000302552361
  56      0.000131727510
  57     -0.000452749402
  58      0.004291921027
  59      0.003463464510
  60     -0.068433032394
  61     -0.009271906819
  62     -0.006871355922
  63      0.080276359352
  64      0.010829782857
  65      0.003720567437
  66     -0.045833390478
  67     -0.006250710203
  68     -0.002302531127
  69      0.000774657135
  70     -0.000051708368
  71      0.000150524565
  72     -0.002600099116
  73     -0.002743270614
  74      0.068557200025
  75      0.009335325318
  76      0.001336414868
  77     -0.079974032907
  78     -0.010715691752
  79      0.003316357149
  80     -0.046397475469
  81     -0.006064681788
  82     -0.000279769288
  83     -0.006492237915
  84      0.000011420836
  85     -0.000073831224
  86     -0.000285561181
  87      0.011556849341
  88     -0.288111009528
  89     -0.037580975017
  90     -0.012343755455
  91      0.314362841605
  92      0.040837614182
  93     -0.000409837683
  94      0.005403049119
  95      0.000729281133
  96      0.000042932733
  97      0.000672873167
  98      0.000594815237
  99     -0.001587017053
 100      0.013758710789
 101      0.063882259686
 102     -0.000413759780
 103      0.003554778934
 104     -0.015696801031
 105      0.010037272062
 106     -0.004454054362
 107      0.000141514761
 108     -0.038470009363
 109      0.025599939359
 110     -0.001750868055
 111     -0.001532526658
 112      0.000213787840
 113     -0.000706007633
 114      0.001384643702
 115     -0.218999360020
 116     -0.004121630248
 117     -0.009430980025
 118      0.212434868573
 119      0.000607265730
 120      0.010026227957
 121     -0.000254184987
 122      0.006844545830
 123     -0.003035429124
 124      0.000435180565
 125      0.000112080658
 126     -0.000694786198
 127      0.001953553486
 128     -0.014733571938
 129     -0.063157419434
 130     -0.005143744789
 131     -0.004638053568
 132      0.014598399172
 133      0.010040029538
 134      0.007787975796
 135      0.005101584994
 136     -0.029430599004
 137     -0.035091851654
 138      0.000235556325
 139     -0.003749677143
 140     -0.000287802357
 141      0.001000625639
 142     -0.001432754495
 143      0.217811987658
 144      0.011909074349
 145      0.011306045247
 146     -0.210908756910
 147     -0.014847341450
 148     -0.013209911063
 149     -0.000658157074
 150      0.005744382211
 151      0.004718786767
 152      0.000005653159
 153      0.000323614379
 Ene=   0.92150951262639E+00
 Spin= Alpha
 Occup=    0.000000
   1     -0.000003581052
   2     -0.000001689487
   3      0.000031091981
   4      0.000057510138
   5     -0.000043519206
   6     -0.000139896767
   7      0.000176870326
   8     -0.001552376408
   9      0.000540815276
  10     -0.000052555344
  11      0.000039754329
  12     -0.000033718416
  13     -0.000293071826
  14     -0.000038404186
  15      0.000024310117
  16      0.000612299415
  17     -0.000123233282
  18      0.000099276897
  19     -0.000815531849
  20      0.000129608889
  21     -0.000077308201
  22      0.000395479077
  23      0.000832463665
  24     -0.008528175144
  25      0.000709304537
  26     -0.000258786762
  27     -0.001181011967
  28     -0.000869818432
  29      0.010756293192
  30     -0.000667654405
  31      0.000251092885
  32      0.022403241359
  33     -0.000930463781
  34      0.001547641313
  35     -0.000088486874
  36     -0.000005043426
  37     -0.000011508135
  38     -0.000011192459
  39     -0.000002878882
  40     -0.000001468950
  41      0.000013370679
  42      0.000029491045
  43     -0.000391563452
  44     -0.000027253593
  45      0.003586218648
  46     -0.001101942715
  47      0.010076651316
  48     -0.005870951945
  49      0.001371714873
  50     -0.011259170652
  51      0.000011438180
  52      0.000020193657
  53      0.000025047455
  54     -0.000025010163
  55     -0.000001049729
  56     -0.000144029756
  57     -0.001023949480
  58     -0.012211251173
  59     -0.000480385338
  60      0.000110169930
  61     -0.001111786144
  62      0.008588463946
  63     -0.000183414965
  64      0.002034347352
  65     -0.000991015518
  66     -0.000075820349
  67     -0.000760186950
  68     -0.000307981424
  69     -0.000056248498
  70      0.000376035044
  71     -0.000244792594
  72      0.016558216912
  73     -0.001179565719
  74     -0.000145391348
  75      0.001036920527
  76      0.013209902595
  77      0.000909261581
  78     -0.000555703333
  79      0.001509563799
  80      0.000110308797
  81     -0.000595997999
  82      0.000146231218
  83      0.000063117881
  84     -0.000011813404
  85      0.000308444207
  86      0.001141004662
  87      0.005588114063
  88      0.001646757517
  89     -0.009266115881
  90     -0.008613779418
  91     -0.002097313124
  92      0.010007950057
  93     -0.000016938857
  94      0.000013879639
  95      0.000040705031
  96     -0.000000857973
  97      0.000010858911
  98     -0.000152309434
  99      0.000657342718
 100     -0.003272172940
 101     -0.000849058843
 102      0.000389233338
 103     -0.000265976174
 104     -0.002032117825
 105     -0.002356096901
 106      0.001063217284
 107      0.000136753966
 108      0.000958673980
 109      0.000840649818
 110     -0.000100325025
 111      0.000231972317
 112     -0.000082364328
 113      0.000358169127
 114     -0.000575755958
 115      0.000300374762
 116     -0.000676321006
 117      0.001072521767
 118      0.001078310645
 119      0.001294730935
 120     -0.001409535099
 121      0.000010184809
 122     -0.000113055286
 123      0.000158641652
 124     -0.000003028379
 125      0.000000474432
 126     -0.000053372974
 127      0.000438501648
 128     -0.000536551919
 129     -0.001058143344
 130     -0.000093072858
 131     -0.000104901882
 132     -0.002095235040
 133      0.000249968786
 134      0.000089256400
 135      0.000195161065
 136     -0.001254464289
 137      0.000457253577
 138     -0.000036764464
 139     -0.000003600530
 140     -0.000043120005
 141      0.000217163963
 142     -0.000258433202
 143      0.000346827907
 144     -0.000142203856
 145      0.000671120148
 146      0.001232686392
 147      0.000147876529
 148     -0.000692989406
 149     -0.000009229406
 150      0.000093266487
 151      0.000207436445
 152     -0.000002592638
 153      0.000022234157
 Ene=   0.92150951262662E+00
 Spin= Alpha
 Occup=    0.000000
   1      0.001282231230
   2      0.000603400639
   3     -0.011115284453
   4     -0.020585395742