[Molden Format]
[Title]
generated by TRESC, imaginary part1 of MOs of job FeCO4
 
[Atoms] AU
Fe   1  26   -0.0540389823    0.5191872865    1.0066466406
 O   2   8    0.2117534346    0.3334081356    6.6028244914
 C   3   6    0.1037850741    0.4413681813    4.4353204988
 C   4   6   -0.1488590074    0.1539081662   -2.4057183154
 O   5   8   -0.2001917131   -0.1354255122   -4.5586307888
 C   6   6   -3.2515199836    1.5320722906    1.0822035548
 O   7   8   -5.2145614824    2.4961101455    1.1140656578
 C   8   6    2.7435656063    2.3618413346    0.8253578566
 O   9   8    4.3670403525    3.8224610068    0.7033934295
[GTO]
  1 0
 s  6 1.0
    60923.6406430000        0.0045980778
     9147.8893982000        0.0193220084
     2081.3505927000        0.0775531983
      587.5597706700        0.2480208186
      191.0904399000        0.4675986791
       65.7327301100        0.3373548125
 s  1 1.0
      127.2589192800        1.0000000000
 s  1 1.0
       14.8309130100        1.0000000000
 s  1 1.0
        6.0653307400        1.0000000000
 s  1 1.0
       10.4499437100        1.0000000000
 s  1 1.0
        1.7245228000        1.0000000000
 s  1 1.0
        0.7177217700        1.0000000000
 s  1 1.0
        0.0914498300        1.0000000000
 s  1 1.0
        0.0337066900        1.0000000000
 p  5 1.0
      773.4375099500        0.0106099056
      182.1514971400        0.0713199466
       57.5472727600        0.2648513978
       20.6149889400        0.5090783315
        7.6348557900        0.3293226861
 p  1 1.0
        3.8719328000        1.0000000000
 p  1 1.0
        1.4924724100        1.0000000000
 p  1 1.0
        0.5606128500        1.0000000000
 d  4 1.0
       38.9681334200        0.0334987321
       10.8000670800        0.1771399682
        3.6136458000        0.4404450273
        1.2129967900        0.5720563253
 d  1 1.0
        0.3652439300        1.0000000000
 p  1 1.0
        0.1349150000        1.0000000000
 f  1 1.0
        1.5980000000        1.0000000000
 
  2 0
 s  5 1.0
     2266.1767785000        0.0060711540
      340.8701019100        0.0417308970
       77.3631351700        0.1850777598
       21.4796449400        0.4668774046
        6.6589433100        0.4435718061
 s  1 1.0
        0.8097597600        1.0000000000
 s  1 1.0
        0.2553077200        1.0000000000
 p  3 1.0
       17.7215043200        0.0628680198
        3.8635505400        0.3334973703
        1.0480920900        0.7412421661
 p  1 1.0
        0.2764154400        1.0000000000
 d  1 1.0
        1.2000000000        1.0000000000
 
  3 0
 s  5 1.0
     1238.4016938000        0.0059599745
      186.2900499200        0.0422621111
       42.2511763500        0.1866575214
       11.6765579300        0.4675815865
        3.5930506500        0.4422897287
 s  1 1.0
        0.4024514700        1.0000000000
 s  1 1.0
        0.1309018300        1.0000000000
 p  3 1.0
        9.4680970600        0.0570294585
        2.0103545100        0.3130471495
        0.5477100500        0.7605135301
 p  1 1.0
        0.1526861400        1.0000000000
 d  1 1.0
        0.8000000000        1.0000000000
 
  4 0
 s  5 1.0
     1238.4016938000        0.0059599745
      186.2900499200        0.0422621111
       42.2511763500        0.1866575214
       11.6765579300        0.4675815865
        3.5930506500        0.4422897287
 s  1 1.0
        0.4024514700        1.0000000000
 s  1 1.0
        0.1309018300        1.0000000000
 p  3 1.0
        9.4680970600        0.0570294585
        2.0103545100        0.3130471495
        0.5477100500        0.7605135301
 p  1 1.0
        0.1526861400        1.0000000000
 d  1 1.0
        0.8000000000        1.0000000000
 
  5 0
 s  5 1.0
     2266.1767785000        0.0060711540
      340.8701019100        0.0417308970
       77.3631351700        0.1850777598
       21.4796449400        0.4668774046
        6.6589433100        0.4435718061
 s  1 1.0
        0.8097597600        1.0000000000
 s  1 1.0
        0.2553077200        1.0000000000
 p  3 1.0
       17.7215043200        0.0628680198
        3.8635505400        0.3334973703
        1.0480920900        0.7412421661
 p  1 1.0
        0.2764154400        1.0000000000
 d  1 1.0
        1.2000000000        1.0000000000
 
  6 0
 s  5 1.0
     1238.4016938000        0.0059599745
      186.2900499200        0.0422621111
       42.2511763500        0.1866575214
       11.6765579300        0.4675815865
        3.5930506500        0.4422897287
 s  1 1.0
        0.4024514700        1.0000000000
 s  1 1.0
        0.1309018300        1.0000000000
 p  3 1.0
        9.4680970600        0.0570294585
        2.0103545100        0.3130471495
        0.5477100500        0.7605135301
 p  1 1.0
        0.1526861400        1.0000000000
 d  1 1.0
        0.8000000000        1.0000000000
 
  7 0
 s  5 1.0
     2266.1767785000        0.0060711540
      340.8701019100        0.0417308970
       77.3631351700        0.1850777598
       21.4796449400        0.4668774046
        6.6589433100        0.4435718061
 s  1 1.0
        0.8097597600        1.0000000000
 s  1 1.0
        0.2553077200        1.0000000000
 p  3 1.0
       17.7215043200        0.0628680198
        3.8635505400        0.3334973703
        1.0480920900        0.7412421661
 p  1 1.0
        0.2764154400        1.0000000000
 d  1 1.0
        1.2000000000        1.0000000000
 
  8 0
 s  5 1.0
     1238.4016938000        0.0059599745
      186.2900499200        0.0422621111
       42.2511763500        0.1866575214
       11.6765579300        0.4675815865
        3.5930506500        0.4422897287
 s  1 1.0
        0.4024514700        1.0000000000
 s  1 1.0
        0.1309018300        1.0000000000
 p  3 1.0
        9.4680970600        0.0570294585
        2.0103545100        0.3130471495
        0.5477100500        0.7605135301
 p  1 1.0
        0.1526861400        1.0000000000
 d  1 1.0
        0.8000000000        1.0000000000
 
  9 0
 s  5 1.0
     2266.1767785000        0.0060711540
      340.8701019100        0.0417308970
       77.3631351700        0.1850777598
       21.4796449400        0.4668774046
        6.6589433100        0.4435718061
 s  1 1.0
        0.8097597600        1.0000000000
 s  1 1.0
        0.2553077200        1.0000000000
 p  3 1.0
       17.7215043200        0.0628680198
        3.8635505400        0.3334973703
        1.0480920900        0.7412421661
 p  1 1.0
        0.2764154400        1.0000000000
 d  1 1.0
        1.2000000000        1.0000000000
 
[5D]
[7F]
[9G]
[MO]
 Ene=  -0.26101104594425E+03
 Spin= Alpha
 Occup=    0.000000
   1     -0.000000823803
   2     -0.000000026992
   3     -0.000000021424
   4      0.000000004783
   5      0.000000002685
   6     -0.000000001727
   7      0.000000000778
   8      0.000000000035
   9      0.000000000045
  10      0.000000038774
  11      0.000000000854
  12      0.000000004264
  13     -0.000000007871
  14      0.000000000144
  15     -0.000000002476
  16      0.000000002623
  17     -0.000000000034
  18      0.000000001566
  19     -0.000000001670
  20      0.000000000002
  21     -0.000000000730
  22     -0.000000000280
  23     -0.000000000118
  24      0.000000003052
  25     -0.000000000051
  26     -0.000000000086
  27      0.000000000084
  28     -0.000000000090
  29     -0.000000000633
  30     -0.000000000041
  31      0.000000000037
  32      0.000000002197
  33      0.000000000057
  34      0.000000000334
  35     -0.000000007463
  36     -0.000000000262
  37     -0.000000000801
  38     -0.000000002201
  39     -0.000000000997
  40      0.000000000140
  41     -0.000000000073
  42     -0.000000000057
  43     -0.000000000299
  44      0.000000000116
  45      0.000000000165
  46      0.000000000004
  47     -0.000000000185
  48      0.000000000015
  49     -0.000000000022
  50      0.000000000507
  51     -0.000000000075
  52     -0.000000000048
  53      0.000000000079
  54     -0.000000000038
  55     -0.000000000019
  56     -0.000000000038
  57      0.000000000075
  58     -0.000000001012
  59      0.000000000135
  60      0.000000000051
  61      0.000000000190
  62      0.000000000301
  63      0.000000000056
  64     -0.000000001763
  65      0.000000000503
  66      0.000000000030
  67      0.000000001975
  68      0.000000000084
  69      0.000000000098
  70      0.000000000036
  71      0.000000000003
  72      0.000000001028
  73      0.000000000147
  74     -0.000000000040
  75     -0.000000000169
  76     -0.000000000090
  77     -0.000000000008
  78      0.000000001665
  79     -0.000000000815
  80     -0.000000000028
  81      0.000000001881
  82     -0.000000000251
  83      0.000000000062
  84      0.000000000048
  85      0.000000000380
  86     -0.000000000405
  87      0.000000000151
  88      0.000000000006
  89      0.000000000184
  90     -0.000000000014
  91      0.000000000010
  92     -0.000000000472
  93      0.000000000074
  94     -0.000000000045
  95      0.000000000091
  96      0.000000000036
  97     -0.000000000007
  98     -0.000000000021
  99      0.000000000022
 100     -0.000000000018
 101     -0.000000000087
 102      0.000000000013
 103      0.000000000010
 104      0.000000000126
 105     -0.000000000026
 106     -0.000000000098
 107     -0.000000000034
 108      0.000000000425
 109     -0.000000000069
 110     -0.000000000019
 111     -0.000000000042
 112      0.000000000016
 113      0.000000000017
 114     -0.000000000020
 115      0.000000000034
 116     -0.000000000004
 117     -0.000000000006
 118     -0.000000000005
 119     -0.000000000001
 120      0.000000000041
 121     -0.000000000005
 122      0.000000000066
 123      0.000000000172
 124      0.000000000000
 125      0.000000000017
 126      0.000000000012
 127      0.000000000036
 128     -0.000000000072
 129     -0.000000000173
 130     -0.000000000018
 131     -0.000000000032
 132      0.000000000643
 133      0.000000000056
 134      0.000000000052
 135      0.000000000103
 136     -0.000000000780
 137     -0.000000000574
 138      0.000000000074
 139     -0.000000000069
 140     -0.000000000018
 141     -0.000000000007
 142     -0.000000000005
 143      0.000000000091
 144      0.000000000000
 145     -0.000000000006
 146     -0.000000000154
 147     -0.000000000013
 148      0.000000000000
 149     -0.000000000018
 150     -0.000000000110
 151      0.000000000208
 152     -0.000000000013
 153      0.000000000002
 Ene=  -0.26101104594425E+03
 Spin= Alpha
 Occup=    1.000000
   1     -0.926970943891
   2     -0.030265051724
   3     -0.024505659537
   4      0.005128213170
   5      0.003622438319
   6     -0.001929269330
   7      0.000903057136
   8     -0.000166501032
   9      0.000014174207
  10     -0.000000230308
  11      0.000000000272
  12      0.000002591469
  13     -0.000000520717
  14     -0.000000917077
  15      0.000005486600
  16      0.000001834103
  17      0.000003203405
  18     -0.000019475101
  19     -0.000001952193
  20     -0.000005155509
  21      0.000031417960
  22     -0.000001688650
  23      0.000000057174
  24     -0.000000530752
  25      0.000000625804
  26      0.000000182317
  27      0.000008870285
  28      0.000000304784
  29      0.000000738283
  30     -0.000000949314
  31     -0.000000418125
  32      0.000003650470
  33      0.000008941598
  34     -0.000067509491
  35      0.000000049264
  36     -0.000000032340
  37     -0.000000355244
  38      0.000000508322
  39     -0.000000100338
  40     -0.000000449609
  41      0.000000898114
  42     -0.000003490313
  43      0.000034467562
  44     -0.000108985653
  45     -0.000007199279
  46     -0.000000347800
  47      0.000000718387
  48      0.000027248851
  49      0.000001269901
  50     -0.000001972008
  51      0.000002006232
  52      0.000000263797
  53     -0.000000592444
  54     -0.000000226466
  55     -0.000000039439
  56     -0.000000803227
  57      0.000032283601
  58      0.000042235580
  59     -0.000002161230
  60     -0.000000457696
  61      0.000002749019
  62      0.000084001740
  63      0.000003899074
  64     -0.000001406291
  65     -0.000018623694
  66     -0.000001183208
  67     -0.000001342292
  68     -0.000000558364
  69     -0.000000188807
  70     -0.000000778622
  71      0.000032603656
  72      0.000043774780
  73      0.000001669167
  74     -0.000000228026
  75      0.000002867264
  76     -0.000083767361
  77     -0.000002413275
  78     -0.000008314452
  79     -0.000018526449
  80     -0.000001200800
  81     -0.000001345984
  82     -0.000000733956
  83     -0.000000271541
  84     -0.000003553632
  85      0.000035014105
  86     -0.000110622415
  87      0.000006875455
  88      0.000000088985
  89      0.000001413702
  90     -0.000027445388
  91     -0.000000564182
  92     -0.000004437825
  93      0.000001407508
  94     -0.000000042230
  95      0.000000441981
  96     -0.000000105053
  97      0.000000026237
  98      0.000001305978
  99      0.000009433392
 100      0.000103061000
 101      0.000000097817
 102     -0.000002707339
 103     -0.000000738441
 104     -0.000001009137
 105     -0.000014860537
 106      0.000032846589
 107      0.000010474309
 108      0.000000776491
 109     -0.000000223844
 110     -0.000014473690
 111      0.000010342923
 112     -0.000003399994
 113      0.000032416261
 114     -0.000086739226
 115     -0.000000178403
 116      0.000007646787
 117     -0.000002910202
 118      0.000000896465
 119     -0.000026532334
 120      0.000003370080
 121     -0.000001177649
 122      0.000000085637
 123     -0.000000041108
 124     -0.000000845379
 125     -0.000002987569
 126      0.000001272753
 127      0.000009043790
 128      0.000103427838
 129     -0.000000073707
 130      0.000002481067
 131     -0.000000178225
 132     -0.000001788871
 133      0.000004176593
 134      0.000034860979
 135      0.000010671253
 136      0.000001613418
 137      0.000001070424
 138     -0.000006825826
 139     -0.000016655544
 140     -0.000003622545
 141      0.000032214522
 142     -0.000085348357
 143      0.000000187599
 144     -0.000006985596
 145     -0.000004872971
 146     -0.000001138980
 147      0.000024707738
 148      0.000009908418
 149     -0.000001223816
 150     -0.000000097910
 151     -0.000000288696
 152     -0.000002044267
 153      0.000002357012
 Ene=  -0.30983754660776E+02
 Spin= Alpha
 Occup=    0.000000
   1     -0.000009849669
   2     -0.000003497591
   3      0.000021674046
   4      0.000013868777
   5     -0.000001989563
   6      0.000000473998
   7     -0.000000055267
   8     -0.000000002233
   9      0.000000002929
  10     -0.000000291166
  11     -0.000000023810
  12      0.000000462876
  13      0.000000020672
  14     -0.000000000907
  15     -0.000000076921
  16     -0.000000008475
  17     -0.000000000158
  18      0.000000053473
  19      0.000000005055
  20     -0.000000000150
  21     -0.000000025485
  22      0.000000019369
  23      0.000000010007
  24     -0.000000118137
  25      0.000000011315
  26     -0.000000000647
  27     -0.000000011748
  28     -0.000000004985
  29      0.000000065916
  30     -0.000000005735
  31     -0.000000000223
  32     -0.000000065183
  33     -0.000000005130
  34      0.000000009986
  35      0.000000038370
  36      0.000000000890
  37      0.000000004055
  38      0.000000017209
  39      0.000000006742
  40     -0.000000000795
  41      0.000000000126
  42      0.000000002230
  43     -0.000000001763
  44      0.000000019111
  45     -0.000000000693
  46      0.000000000205
  47     -0.000000000288
  48     -0.000000001467
  49     -0.000000000489
  50      0.000000002923
  51     -0.000000000022
  52      0.000000000141
  53      0.000000000537
  54      0.000000000449
  55      0.000000000155
  56     -0.000000000237
  57     -0.000000006760
  58      0.000000041181
  59     -0.000000001195
  60     -0.000000000179
  61     -0.000000002110
  62     -0.000000044413
  63     -0.000000001211
  64     -0.000000002463
  65      0.000000000931
  66     -0.000000000601
  67     -0.000000002681
  68     -0.000000000430
  69     -0.000000000150
  70     -0.000000000182
  71      0.000000007261
  72     -0.000000037851
  73      0.000000000061
  74      0.000000000189
  75      0.000000002251
  76     -0.000000032091
  77     -0.000000001793
  78     -0.000000003325
  79      0.000000002852
  80     -0.000000000651
  81     -0.000000001330
  82      0.000000000652
  83     -0.000000000130
  84     -0.000000001979
  85     -0.000000000708
  86     -0.000000011272
  87     -0.000000001565
  88     -0.000000000263
  89      0.000000000723
  90     -0.000000000456
  91      0.000000000409
  92     -0.000000001769
  93     -0.000000000940
  94      0.000000000122
  95      0.000000000659
  96     -0.000000000652
  97      0.000000000018
  98      0.000000000022
  99      0.000000000180
 100     -0.000000008055
 101     -0.000000000251
 102      0.000000000314
 103     -0.000000000047
 104     -0.000000004718
 105     -0.000000001280
 106     -0.000000003406
 107      0.000000000023
 108     -0.000000005340
 109      0.000000000277
 110      0.000000000780
 111     -0.000000000567
 112     -0.000000000143
 113     -0.000000001647
 114      0.000000004475
 115     -0.000000000929
 116     -0.000000000498
 117     -0.000000000042
 118      0.000000002082
 119      0.000000002054
 120      0.000000000623
 121      0.000000000088
 122     -0.000000000881
 123     -0.000000000794
 124      0.000000000102
 125      0.000000000152
 126     -0.000000000483
 127      0.000000000072
 128     -0.000000005989
 129     -0.000000000277
 130     -0.000000000590
 131     -0.000000000116
 132     -0.000000008176
 133     -0.000000001071
 134     -0.000000005654
 135     -0.000000001739
 136      0.000000007664
 137      0.000000004308
 138      0.000000000531
 139      0.000000002319
 140      0.000000000513
 141     -0.000000002151
 142      0.000000006403
 143     -0.000000001108
 144      0.000000000535
 145      0.000000000761
 146      0.000000003243
 147     -0.000000001906
 148     -0.000000000138
 149      0.000000000185
 150      0.000000001294
 151     -0.000000000730
 152      0.000000000374
 153     -0.000000000284
 Ene=  -0.30983754660776E+02
 Spin= Alpha
 Occup=    1.000000
   1      0.227887350379
   2      0.080924192447
   3     -0.501497784172
   4     -0.320930711904
   5      0.046101206437
   6     -0.010916649583
   7      0.001218483972
   8      0.000413660283
   9     -0.000068563190
  10      0.000000517786
  11     -0.000003169402
  12     -0.000000572379
  13      0.000001195859
  14      0.000002926320
  15     -0.000019124032
  16     -0.000002300458
  17     -0.000002448165
  18      0.000012006938
  19      0.000000972069
  20      0.000000180462
  21      0.000006288760
  22     -0.000273975401
  23     -0.000009850071
  24     -0.000024326777
  25     -0.000162969110
  26     -0.000047305186
  27      0.000213774257
  28      0.000010479517
  29      0.000017731053
  30      0.000074548413
  31      0.000022221896
  32     -0.000001063841
  33      0.000003557865
  34     -0.000016653906
  35      0.000000188030
  36      0.000000536486
  37     -0.000002361867
  38     -0.000000500264
  39     -0.000000011946
  40      0.000000580140
  41     -0.000000739646
  42     -0.000004544306
  43      0.000043412406
  44     -0.000145626538
  45     -0.000013524013
  46     -0.000000818889
  47      0.000001018907
  48      0.000019707995
  49      0.000001536257
  50     -0.000002708280
  51      0.000009771207
  52      0.000000804130
  53     -0.000000929576
  54      0.000000489105
  55     -0.000000004722
  56      0.000006361599
  57     -0.000000290455
  58     -0.000108154064
  59      0.000024704397
  60      0.000001101337
  61     -0.000000462132
  62      0.000225187514
  63      0.000010283217
  64     -0.000005834998
  65     -0.000052681586
  66     -0.000004459895
  67      0.000004165454
  68     -0.000000934595
  69     -0.000000090590
  70      0.000006328655
  71     -0.000000672581
  72     -0.000110365829
  73     -0.000024223286
  74     -0.000000871259
  75     -0.000002439251
  76     -0.000223843395
  77     -0.000006120313
  78     -0.000024931189
  79     -0.000051780481
  80     -0.000002101197
  81     -0.000011906335
  82      0.000000083944
  83     -0.000000457798
  84     -0.000004413549
  85      0.000042616497
  86     -0.000143268470
  87      0.000013776222
  88      0.000000308675
  89      0.000002009209
  90     -0.000018877481
  91     -0.000000183838
  92     -0.000004072143
  93      0.000010259355
  94      0.000000474320
  95      0.000002937279
  96      0.000000004382
  97      0.000000065703
  98     -0.000000002493
  99      0.000018797863
 100      0.000004859283
 101     -0.000000108839
 102      0.000002658494
 103      0.000001249991
 104      0.000000702962
 105     -0.000061860529
 106      0.000043807492
 107      0.000004495171
 108     -0.000000065218
 109     -0.000000189242
 110     -0.000002940331
 111      0.000010576003
 112     -0.000002362215
 113      0.000024800445
 114     -0.000085936549
 115     -0.000000158410
 116      0.000005764746
 117     -0.000000641660
 118      0.000000689719
 119     -0.000027831989
 120      0.000005933079
 121      0.000000218847
 122      0.000000020727
 123      0.000000083237
 124      0.000000201942
 125     -0.000000440412
 126      0.000000102701
 127      0.000019304519
 128      0.000003825613
 129      0.000000031863
 130     -0.000002395452
 131      0.000000719064
 132     -0.000004134134
 133      0.000049413404
 134      0.000060370174
 135      0.000004077934
 136      0.000000622234
 137      0.000000858047
 138      0.000002940631
 139     -0.000010122081
 140     -0.000001339786
 141      0.000025115966
 142     -0.000088073756
 143      0.000000691687
 144     -0.000004736141
 145     -0.000002173629
 146     -0.000001822640
 147      0.000024838835
 148      0.000014034200
 149      0.000000283883
 150      0.000000018109
 151      0.000000033795
 152     -0.000000407854
 153      0.000000127613
 Ene=  -0.26671650664758E+02
 Spin= Alpha
 Occup=    0.625198
   1      0.000007209468
   2      0.000005024614
   3     -0.000255571802
   4     -0.000400625508
   5      0.000506625467
   6      0.000416031101
   7     -0.000519362245
   8      0.003094561037
   9      0.000040434810
  10      0.086338382252
  11      0.138509664659
  12      0.521315937683
  13     -0.001155830048
  14     -0.001936439451
  15     -0.007673841001
  16      0.002473167283
  17      0.003981416798
  18      0.014689720462
  19     -0.001162515658
  20     -0.001761642719
  21     -0.005975724927
  22     -0.000074734897
  23     -0.000005848086
  24     -0.000005327918
  25      0.000001247409
  26      0.000020253351
  27      0.000344000042
  28      0.000032024140
  29      0.000023121161
  30     -0.000036551870
  31     -0.000175803143
  32      0.001573635399
  33      0.000160559520
  34      0.002799223488
  35     -0.000016399761
  36      0.000030393134
  37      0.000046999007
  38      0.000005331880
  39      0.000007362358
  40      0.000003086378
  41     -0.000005417968
  42     -0.000007031998
  43      0.000094523760
  44     -0.000609268990
  45      0.000013147654
  46     -0.000005193362
  47     -0.000019273154
  48      0.000084740181
  49      0.000053027674
  50      0.000145792588
  51     -0.000006921464
  52     -0.000012099052
  53     -0.000034064250
  54     -0.000002904932
  55     -0.000001127851
  56     -0.000008092365
  57      0.000136626301
  58     -0.001368159424
  59      0.000044622727
  60      0.000011088251
  61      0.000004436018
  62      0.001260798941
  63     -0.000050813146
  64     -0.000421046181
  65     -0.000000022525
  66     -0.000022110452
  67     -0.000062072943
  68      0.000010428278
  69     -0.000000827465
  70      0.000030717126
  71     -0.000023016046
  72      0.000187720119
  73     -0.000078168460
  74      0.000005294012
  75      0.000008400853
  76     -0.000133427924
  77     -0.000109040605
  78     -0.000431943425
  79     -0.000229707092
  80      0.000010581583
  81      0.000020060433
  82     -0.000000094020
  83      0.000001839804
  84     -0.000017270465
  85      0.000164295242
  86     -0.000333403278
  87      0.000067175077
  88     -0.000003868403
  89     -0.000011794566
  90     -0.000084408963
  91      0.000043951477
  92      0.000159336607
  93      0.000030106226
  94      0.000012329086
  95      0.000046669478
  96     -0.000005802017
  97      0.000002565601
  98     -0.000018474837
  99      0.000225306770
 100     -0.001440350284
 101     -0.000015873944
 102      0.000082509103
 103      0.000026991965
 104     -0.000079364473
 105     -0.000906881148
 106     -0.000410152722
 107      0.000030915255
 108      0.000001997488
 109     -0.000004932387
 110      0.000043897831
 111      0.000050913695
 112      0.000000804432
 113     -0.000014680141
 114      0.000006344298
 115     -0.000004822265
 116     -0.000016113353
 117     -0.000041000176
 118      0.000031185759
 119      0.000164486967
 120      0.000242361756
 121     -0.000002712254
 122      0.000004262082
 123     -0.000003080408
 124      0.000043580997
 125      0.000023319972
 126     -0.000075071116
 127      0.000161516974
 128     -0.001467693995
 129     -0.000002462869
 130     -0.000178585092
 131     -0.000062336909
 132     -0.000110762717
 133      0.000139475149
 134     -0.000583471859
 135     -0.000187036736
 136     -0.000036792644
 137     -0.000026460153
 138      0.000207450105
 139      0.000364801180
 140      0.000033752414
 141     -0.000327984833
 142      0.000788383301
 143     -0.000013834814
 144      0.000094715192
 145      0.000074589892
 146      0.000053830601
 147     -0.000221847670
 148      0.000045824124
 149      0.000043869314
 150     -0.000001538938
 151      0.000002718008
 152      0.000052931305
 153     -0.000078272541
 Ene=  -0.26671650664758E+02
 Spin= Alpha
 Occup=    0.374802
   1      0.000002252959
   2      0.000001838145
   3     -0.000085358337
   4     -0.000133632111
   5      0.000169186763
   6      0.000138737823
   7     -0.000173202033
   8      0.001031888083
   9      0.000013503707
  10     -0.284749319545
  11      0.049163067601
  12      0.162640236740
  13      0.003899398847
  14     -0.000694372117
  15     -0.002406714806
  16     -0.008127905410
  17      0.001412220461
  18      0.004578486799
  19      0.003701782925
  20     -0.000614915041
  21     -0.001845304457
  22     -0.000024765882
  23     -0.000001715610
  24     -0.000004009805
  25      0.000000138168
  26      0.000008024123
  27      0.000113395839
  28      0.000008282419
  29      0.000027458797
  30     -0.000009968404
  31     -0.000069047683
  32     -0.004160419439
  33     -0.000085766499
  34      0.000741381007
  35      0.000017905307
  36      0.000016439579
  37      0.000017592446
  38     -0.000016177504
  39     -0.000002505947
  40      0.000000474474
  41     -0.000002939275
  42     -0.000016396356
  43      0.000127991173
  44      0.000179138936
  45     -0.000104140865
  46     -0.000007184591
  47     -0.000004056990
  48      0.000003651422
  49      0.000017729696
  50      0.000076950356
  51      0.000059644045
  52      0.000000805600
  53     -0.000022649713
  54     -0.000000862121
  55     -0.000000798107
  56      0.000051071670
  57     -0.000175343041
  58      0.001696845155
  59      0.000058987258
  60      0.000004244331
  61      0.000016088649
  62     -0.001079190744
  63     -0.000093254832
  64     -0.000139204272
  65     -0.000305990468
  66     -0.000033517393
  67     -0.000008206195
  68     -0.000009464871
  69     -0.000003302168
  70     -0.000043522314
  71      0.000213222113
  72     -0.002090403744
  73      0.000018996360
  74      0.000005874532
  75     -0.000007891419
  76     -0.001539107780
  77     -0.000093493462
  78     -0.000274227781
  79      0.000224937763
  80      0.000019493991
  81      0.000064743065
  82      0.000009603610
  83      0.000005843459
  84      0.000008364428
  85     -0.000041724288
  86     -0.000493364565
  87     -0.000085644166
  88     -0.000004857282
  89     -0.000015556441
  90     -0.000050524413
  91      0.000022687573
  92      0.000024221254
  93     -0.000049933192
  94      0.000003578882
  95     -0.000004242275
  96     -0.000000631890
  97      0.000000531992
  98     -0.000004115395
  99      0.000077418157
 100     -0.000479394424
 101      0.000027057873
 102      0.000024916481
 103      0.000011745341
 104      0.000333718147
 105     -0.000322235738
 106     -0.000114845014
 107      0.000017434632
 108     -0.000009180259
 109      0.000017779659
 110      0.000001745461
 111      0.000026370159
 112     -0.000000912377
 113      0.000006399853
 114     -0.000025962221
 115      0.000018002717
 116     -0.000001200617
 117     -0.000015973546
 118     -0.000120753175
 119      0.000048568042
 120      0.000080228402
 121     -0.000002099121
 122     -0.000017984284
 123      0.000009685883
 124      0.000014768803
 125      0.000004794318
 126     -0.000027057530
 127      0.000051477982
 128     -0.000490486837
 129      0.000031666565
 130     -0.000061609866
 131     -0.000021789297
 132      0.000323818099
 133      0.000029931401
 134     -0.000195036959
 135     -0.000072060580
 136     -0.000009007058
 137      0.000012100410
 138      0.000073549288
 139      0.000136489004
 140      0.000012470978
 141     -0.000120637161
 142      0.000291012107
 143      0.000014705329
 144      0.000034761971
 145      0.000029535000
 146     -0.000112706226
 147     -0.000078895326
 148      0.000004647255
 149      0.000014119316
 150      0.000015376499
 151      0.000016602490
 152      0.000017721551
 153     -0.000027753836
 Ene=  -0.26215263533877E+02
 Spin= Alpha
 Occup=    0.625471
   1      0.000000026767
   2     -0.000000180729
   3      0.000001494138
   4      0.000002056944