[Molden Format]
[Title]
generated by TRESC, real part2 of MOs of job CO3
 
[Atoms] AU
 C   1   6    0.3364484192    5.8882927452    0.3891081484
 O   2   8    2.6974300312    5.9862747024    0.4085979628
 O   3   8   -0.7714112401    7.4618585764    1.8371371576
 O   4   8   -0.6184572465    4.2284969646   -1.0743142370
[GTO]
  1 0
 s  5 1.0
     1238.4016938000        0.0059599745
      186.2900499200        0.0422621111
       42.2511763500        0.1866575214
       11.6765579300        0.4675815865
        3.5930506500        0.4422897287
 s  1 1.0
        0.4024514700        1.0000000000
 s  1 1.0
        0.1309018300        1.0000000000
 p  3 1.0
        9.4680970600        0.0570294585
        2.0103545100        0.3130471495
        0.5477100500        0.7605135301
 p  1 1.0
        0.1526861400        1.0000000000
 d  1 1.0
        0.8000000000        1.0000000000
 
  2 0
 s  5 1.0
     2266.1767785000        0.0060711540
      340.8701019100        0.0417308970
       77.3631351700        0.1850777598
       21.4796449400        0.4668774046
        6.6589433100        0.4435718061
 s  1 1.0
        0.8097597600        1.0000000000
 s  1 1.0
        0.2553077200        1.0000000000
 p  3 1.0
       17.7215043200        0.0628680198
        3.8635505400        0.3334973703
        1.0480920900        0.7412421661
 p  1 1.0
        0.2764154400        1.0000000000
 d  1 1.0
        1.2000000000        1.0000000000
 
  3 0
 s  5 1.0
     2266.1767785000        0.0060711540
      340.8701019100        0.0417308970
       77.3631351700        0.1850777598
       21.4796449400        0.4668774046
        6.6589433100        0.4435718061
 s  1 1.0
        0.8097597600        1.0000000000
 s  1 1.0
        0.2553077200        1.0000000000
 p  3 1.0
       17.7215043200        0.0628680198
        3.8635505400        0.3334973703
        1.0480920900        0.7412421661
 p  1 1.0
        0.2764154400        1.0000000000
 d  1 1.0
        1.2000000000        1.0000000000
 
  4 0
 s  5 1.0
     2266.1767785000        0.0060711540
      340.8701019100        0.0417308970
       77.3631351700        0.1850777598
       21.4796449400        0.4668774046
        6.6589433100        0.4435718061
 s  1 1.0
        0.8097597600        1.0000000000
 s  1 1.0
        0.2553077200        1.0000000000
 p  3 1.0
       17.7215043200        0.0628680198
        3.8635505400        0.3334973703
        1.0480920900        0.7412421661
 p  1 1.0
        0.2764154400        1.0000000000
 d  1 1.0
        1.2000000000        1.0000000000
 
[5D]
[7F]
[9G]
[MO]
 Ene=   0.99821721339962E+00
 Spin= Alpha
 Occup=    0.000000
   1      0.000000000000
   2      0.000000000000
   3      0.000000000000
   4      0.000000000000
   5      0.000000000000
   6      0.000000000000
   7      0.000000000000
   8      0.000000000000
   9      0.000000000000
  10      0.000000000000
  11      0.000000000000
  12      0.000000000000
  13      0.000000000000
  14      0.000000000000
  15      0.000000000000
  16      0.000000000000
  17      0.000000000000
  18      0.000000000000
  19      0.000000000000
  20      0.000000000000
  21      0.000000000000
  22      0.000000000000
  23      0.000000000000
  24      0.000000000000
  25      0.000000000000
  26      0.000000000000
  27      0.000000000000
  28      0.000000000000
  29      0.000000000000
  30      0.000000000000
  31      0.000000000000
  32      0.000000000000
  33      0.000000000000
  34      0.000000000000
  35      0.000000000000
  36      0.000000000000
  37      0.000000000000
  38      0.000000000000
  39      0.000000000000
  40      0.000000000000
  41      0.000000000000
  42      0.000000000000
  43      0.000000000000
  44      0.000000000000
  45      0.000000000000
  46      0.000000000000
  47      0.000000000000
  48      0.000000000000
  49      0.000000000000
  50      0.000000000000
  51      0.000000000000
  52      0.000000000000
  53      0.000000000000
  54      0.000000000000
  55      0.000000000000
  56      0.000000000000
 Ene=   0.10082222469543E+01
 Spin= Alpha
 Occup=    0.000000
   1      0.000000193151
   2     -0.000002966531
   3     -0.000004042750
   4     -0.000003485420
   5      0.000017730374
   6      0.000385304198
   7     -0.000018167192
   8      0.001062636405
   9     -0.003446125734
  10     -0.028564290089
  11      0.000240921949
  12     -0.003497190665
  13     -0.016411522240
  14     -0.001639492066
  15      0.000000353904
  16     -0.000002281057
  17      0.000005493402
  18     -0.000001663833
  19      0.000493884432
  20     -0.002317453899
  21     -0.000009890043
  22     -0.000510290008
  23      0.003640936526
  24      0.019658740149
  25     -0.000212409104
  26      0.002403436271
  27      0.011306570644
  28      0.000996776346
  29      0.000086121256
  30     -0.000408968474
  31      0.000921325819
  32     -0.014617520663
  33      0.452553708055
  34     -0.503816985700
  35      0.016819755773
  36     -0.525713100718
  37      0.585428371322
  38      0.013487596920
  39     -0.001482621307
  40      0.001627015174
  41      0.007717998464
  42      0.001770935937
  43     -0.000087341090
  44      0.000414843244
  45     -0.000923389541
  46      0.014596020696
  47     -0.451783130044
  48      0.502035349885
  49     -0.016758835374
  50      0.523618063780
  51     -0.581674779238
  52      0.013411751743
  53      0.001098930056
  54      0.001656770523
  55      0.007766957428
  56     -0.000553476063
 Ene=   0.10572652116261E+01
 Spin= Alpha
 Occup=    0.000000
   1     -0.000197918078
   2      0.002377991554
   3      0.005332190135
   4      0.008163010867
   5     -0.180805076119
   6     -0.162791423207
   7     -0.038678640556
   8      0.887279623724
   9      0.798835780032
  10      0.002426287184
  11      0.178450862634
  12      0.009560452644
  13     -0.018353514656
  14      0.197844380784
  15     -0.000377898004
  16      0.002452883513
  17     -0.006963207647
  18     -0.021569730252
  19      0.453969859094
  20      0.408766062361
  21      0.044916344009
  22     -0.910086529777
  23     -0.819518611301
  24     -0.000751906875
  25     -0.056753189571
  26     -0.003039220934
  27      0.005685479610
  28     -0.062931952359
  29     -0.011212959595
  30      0.022839063127
  31     -0.411361000687
  32     -0.071768283828
  33      0.246701716806
  34      0.222602116004
  35      0.074747119232
  36     -0.458945777354
  37     -0.413084198043
  38      0.003362066883
  39      0.005387467495
  40     -0.035397976091
  41      0.001470919989
  42      0.004847499203
  43      0.011265137180
  44     -0.022370766599
  45      0.408154409812
  46      0.051115633444
  47      0.252116340899
  48      0.226462262669
  49     -0.036699388975
  50     -0.464726795676
  51     -0.418449289854
  52     -0.003140579108
  53      0.002785362381
  54      0.035741441419
  55     -0.002335031084
  56      0.004209805758
 Ene=   0.10698879941284E+01
 Spin= Alpha
 Occup=    0.000000
   1      0.000000000000
   2      0.000000000000
   3      0.000000000000
   4      0.000000000000
   5      0.000000000000
   6      0.000000000000
   7      0.000000000000
   8      0.000000000000
   9      0.000000000000
  10      0.000000000000
  11      0.000000000000
  12      0.000000000000
  13      0.000000000000
  14      0.000000000000
  15      0.000000000000
  16      0.000000000000
  17      0.000000000000
  18      0.000000000000
  19      0.000000000000
  20      0.000000000000
  21      0.000000000000
  22      0.000000000000
  23      0.000000000000
  24      0.000000000000
  25      0.000000000000
  26      0.000000000000
  27      0.000000000000
  28      0.000000000000
  29      0.000000000000
  30      0.000000000000
  31      0.000000000000
  32      0.000000000000
  33      0.000000000000
  34      0.000000000000
  35      0.000000000000
  36      0.000000000000
  37      0.000000000000
  38      0.000000000000
  39      0.000000000000
  40      0.000000000000
  41      0.000000000000
  42      0.000000000000
  43      0.000000000000
  44      0.000000000000
  45      0.000000000000
  46      0.000000000000
  47      0.000000000000
  48      0.000000000000
  49      0.000000000000
  50      0.000000000000
  51      0.000000000000
  52      0.000000000000
  53      0.000000000000
  54      0.000000000000
  55      0.000000000000
  56      0.000000000000
 Ene=   0.11003378923053E+01
 Spin= Alpha
 Occup=    0.000000
   1      0.000000000000
   2      0.000000000000
   3      0.000000000000
   4      0.000000000000
   5      0.000000000000
   6      0.000000000000
   7      0.000000000000
   8      0.000000000000
   9      0.000000000000
  10      0.000000000000
  11      0.000000000000
  12      0.000000000000
  13      0.000000000000
  14      0.000000000000
  15      0.000000000000
  16      0.000000000000
  17      0.000000000000
  18      0.000000000000
  19      0.000000000000
  20      0.000000000000
  21      0.000000000000
  22      0.000000000000
  23      0.000000000000
  24      0.000000000000
  25      0.000000000000
  26      0.000000000000
  27      0.000000000000
  28      0.000000000000
  29      0.000000000000
  30      0.000000000000
  31      0.000000000000
  32      0.000000000000
  33      0.000000000000
  34      0.000000000000
  35      0.000000000000
  36      0.000000000000
  37      0.000000000000
  38      0.000000000000
  39      0.000000000000
  40      0.000000000000
  41      0.000000000000
  42      0.000000000000
  43      0.000000000000
  44      0.000000000000
  45      0.000000000000
  46      0.000000000000
  47      0.000000000000
  48      0.000000000000
  49      0.000000000000
  50      0.000000000000
  51      0.000000000000
  52      0.000000000000
  53      0.000000000000
  54      0.000000000000
  55      0.000000000000
  56      0.000000000000
 Ene=   0.11344910817733E+01
 Spin= Alpha
 Occup=    0.000000
   1      0.015806195727
   2     -0.221177374776
   3     -0.851225655180
   4      0.229665955160
   5      0.009100188360
   6      0.001118794025
   7     -0.916850393159
   8     -0.039549808482
   9     -0.004535962285
  10     -0.086124619540
  11      0.007993854947
  12     -0.128558331826
  13      0.175850407680
  14      0.015541710724
  15      0.002595055792
  16      0.008643527157
  17      0.518460344080
  18     -0.087143953444
  19     -0.002726670741
  20      0.002207433126
  21      0.269813015381
  22      0.009317754620
  23     -0.003356263362
  24     -0.018126994798
  25     -0.001989746235
  26      0.048150778311
  27      0.021145030729
  28      0.001077771186
  29      0.065817690681
  30     -0.443757504448
  31      0.693347495806
  32     -0.543904798873
  33     -0.156500101514
  34     -0.122876288882
  35      1.036184231680
  36      0.047212376956
  37      0.008564713756
  38      0.012504272992
  39      0.027501790935
  40      0.007450532385
  41     -0.025158521530
  42      0.029190565493
  43      0.065429481036
  44     -0.441046359578
  45      0.688528448531
  46     -0.553962290261
  47      0.108965407512
  48      0.116107121547
  49      1.031691455747
  50      0.040354610792
  51      0.002508966019
  52      0.011799321666
  53     -0.028449971360
  54      0.004750774766
  55     -0.019385537304
  56     -0.032828734321
 Ene=   0.11556288822622E+01
 Spin= Alpha
 Occup=    0.000000
   1      0.000026876276
   2     -0.000487463104
   3     -0.002245090643
   4      0.002480170896
   5     -0.043463718584
   6     -0.039151092900
   7     -0.001838543225
   8      0.020490470220
   9      0.018507365536
  10      0.000722964849
  11      0.077639250313
  12      0.003500888011
  13     -0.007101034599
  14      0.086111453232
  15     -0.000036420986
  16      0.000216939590
  17      0.000474174429
  18      0.011822657989
  19     -0.253179253188
  20     -0.227956639167
  21     -0.017125161051
  22      0.374404485259
  23      0.337089414422
  24      0.000288739480
  25      0.024380473340
  26      0.001280383161
  27     -0.002406270255
  28      0.027036744166
  29      0.012574206247
  30     -0.083495147865
  31      0.126746893694
  32      0.516332268006
  33      0.269848979197
  34      0.227958937256
  35     -0.654298648086
  36     -0.404847811244
  37     -0.345241731185
  38     -0.017556492611
  39     -0.018001959287
  40     -0.025024795992
  41      0.036867271126
  42     -0.018537515084
  43     -0.012127109154
  44      0.080673526236
  45     -0.121962635699
  46     -0.542699107995
  47      0.227801592484
  48      0.220261547594
  49      0.694747427252
  50     -0.349864289287
  51     -0.334527680533
  52      0.017081512011
  53     -0.021052310003
  54      0.023159422020
  55     -0.033105375797
  56     -0.024771140906
 Ene=   0.11580946093560E+01
 Spin= Alpha
 Occup=    0.000000
   1      0.000000000000
   2      0.000000000000
   3      0.000000000000
   4      0.000000000000
   5      0.000000000000
   6      0.000000000000
   7      0.000000000000
   8      0.000000000000
   9      0.000000000000
  10      0.000000000000
  11      0.000000000000
  12      0.000000000000
  13      0.000000000000
  14      0.000000000000
  15      0.000000000000
  16      0.000000000000
  17      0.000000000000
  18      0.000000000000
  19      0.000000000000
  20      0.000000000000
  21      0.000000000000
  22      0.000000000000
  23      0.000000000000
  24      0.000000000000
  25      0.000000000000
  26      0.000000000000
  27      0.000000000000
  28      0.000000000000
  29      0.000000000000
  30      0.000000000000
  31      0.000000000000
  32      0.000000000000
  33      0.000000000000
  34      0.000000000000
  35      0.000000000000
  36      0.000000000000
  37      0.000000000000
  38      0.000000000000
  39      0.000000000000
  40      0.000000000000
  41      0.000000000000
  42      0.000000000000
  43      0.000000000000
  44      0.000000000000
  45      0.000000000000
  46      0.000000000000
  47      0.000000000000
  48      0.000000000000
  49      0.000000000000
  50      0.000000000000
  51      0.000000000000
  52      0.000000000000
  53      0.000000000000
  54      0.000000000000
  55      0.000000000000
  56      0.000000000000
 Ene=   0.11674752650323E+01
 Spin= Alpha
 Occup=    0.000000
   1      0.000000000000
   2      0.000000000000
   3      0.000000000000
   4      0.000000000000
   5      0.000000000000
   6      0.000000000000
   7      0.000000000000
   8      0.000000000000
   9      0.000000000000
  10      0.000000000000
  11      0.000000000000
  12      0.000000000000
  13      0.000000000000
  14      0.000000000000
  15      0.000000000000
  16      0.000000000000
  17      0.000000000000
  18      0.000000000000
  19      0.000000000000
  20      0.000000000000
  21      0.000000000000
  22      0.000000000000
  23      0.000000000000
  24      0.000000000000
  25      0.000000000000
  26      0.000000000000
  27      0.000000000000
  28      0.000000000000
  29      0.000000000000
  30      0.000000000000
  31      0.000000000000
  32      0.000000000000
  33      0.000000000000
  34      0.000000000000
  35      0.000000000000
  36      0.000000000000
  37      0.000000000000
  38      0.000000000000
  39      0.000000000000
  40      0.000000000000
  41      0.000000000000
  42      0.000000000000
  43      0.000000000000
  44      0.000000000000
  45      0.000000000000
  46      0.000000000000
  47      0.000000000000
  48      0.000000000000
  49      0.000000000000
  50      0.000000000000
  51      0.000000000000
  52      0.000000000000
  53      0.000000000000
  54      0.000000000000
  55      0.000000000000
  56      0.000000000000
 Ene=   0.11720663928436E+01
 Spin= Alpha
 Occup=    0.000000
   1     -0.000106243368
   2      0.002322862237
   3      0.007651050035
   4      0.002807814925
   5     -0.049203667252
   6      0.054793691786
   7     -0.025590666182
   8      0.765081715375
   9     -0.850997404815
  10     -0.000439045761
  11      0.009309421293
  12      0.000120303684
  13      0.001382189884
  14     -0.008271969895
  15     -0.000756449465
  16      0.005155820295
  17     -0.009386825063
  18     -0.008607887573
  19      0.244837356653
  20     -0.272363752329
  21      0.020482537697
  22     -0.491477996735
  23      0.546903312450
  24      0.000197471919
  25      0.018688852326
  26      0.000636653334
  27      0.001453695636
  28     -0.016754662733
  29     -0.000294175163
  30      0.001822889416
  31     -0.004093734869
  32     -0.015009769283
  33      0.406612551750
  34     -0.453463192724
  35      0.024863845226
  36     -0.691048984997
  37      0.771275102906
  38      0.032014859890
  39     -0.011053996588
  40      0.003521847289
  41      0.017504959431
  42      0.011137386932
  43     -0.000293467835
  44      0.001818023247
  45     -0.004073845923
  46     -0.015146317908
  47      0.409794556028
  48     -0.454785171207
  49      0.025073779163
  50     -0.695747061951
  51      0.771468475978
  52     -0.032054715955
  53     -0.010376136434
  54     -0.004309808199
  55     -0.019358248615
  56      0.008059659875
 Ene=   0.11978340144342E+01
 Spin= Alpha
 Occup=    0.000000
   1     -0.045962291821
   2      0.820278893761
   3      3.153296046003
   4      0.172612232121
   5      0.007903102094
   6      0.001844420322
   7      0.500745227274
   8      0.021262365823
   9      0.010988860120
  10     -0.057903470323
  11      0.000395104364
  12      0.018372991223
  13      0.096117375661
  14      0.007453422003
  15     -0.220509249480
  16      1.498359986856
  17     -3.235898364381
  18     -0.135499870593
  19     -0.006494630277
  20     -0.000119955187
  21      1.148948423656
  22      0.049541023048
  23      0.007402924948
  24     -0.017548168066
  25      0.002526464240
  26     -0.043341802677
  27      0.039426149163
  28      0.003945898231
  29     -0.140648752759
  30      0.914353256244
  31     -1.901742635800
  32     -0.058994513538
  33     -0.064293612759
  34     -0.053309590674
  35     -0.157420474654
  36      0.413637690654
  37      0.371624142217
  38      0.028096632443
  39     -0.003286182960
  40     -0.008393037886
  41     -0.046856115348
  42     -0.007096525381
  43     -0.140031118571
  44      0.910093933357
  45     -1.889849697318
  46     -0.065288966530
  47      0.056332115443
  48      0.055336907772
  49     -0.116269654252
  50     -0.417740271822
  51     -0.377051944236
  52      0.028254426515
  53      0.002610542398
  54     -0.008193926639
  55     -0.046934809309
  56     -0.000523979777
 Ene=   0.12051915333922E+01
 Spin= Alpha
 Occup=    0.000000
   1      0.000000000000
   2      0.000000000000
   3      0.000000000000
   4      0.000000000000
   5      0.000000000000
   6      0.000000000000
   7      0.000000000000
   8      0.000000000000
   9      0.000000000000
  10      0.000000000000
  11      0.000000000000
  12      0.000000000000
  13      0.000000000000
  14      0.000000000000
  15      0.000000000000
  16      0.000000000000
  17      0.000000000000
  18      0.000000000000
  19      0.000000000000
  20      0.000000000000
  21      0.000000000000
  22      0.000000000000
  23      0.000000000000
  24      0.000000000000
  25      0.000000000000
  26      0.000000000000
  27      0.000000000000
  28      0.000000000000
  29      0.000000000000
  30      0.000000000000
  31      0.000000000000
  32      0.000000000000
  33      0.000000000000
  34      0.000000000000
  35      0.000000000000
  36      0.000000000000
  37      0.000000000000
  38      0.000000000000
  39      0.000000000000
  40      0.000000000000
  41      0.000000000000
  42      0.000000000000
  43      0.000000000000
  44      0.000000000000
  45      0.000000000000
  46      0.000000000000
  47      0.000000000000
  48      0.000000000000
  49      0.000000000000
  50      0.000000000000
  51      0.000000000000
  52      0.000000000000
  53      0.000000000000
  54      0.000000000000
  55      0.000000000000
  56      0.000000000000
 Ene=   0.15313293200731E+01
 Spin= Alpha
 Occup=    0.000000
   1      0.000000000000
   2      0.000000000000
   3      0.000000000000
   4      0.000000000000
   5      0.000000000000
   6      0.000000000000
   7      0.000000000000
   8      0.000000000000
   9      0.000000000000
  10      0.000000000000
  11      0.000000000000
  12      0.000000000000
  13      0.000000000000
  14      0.000000000000
  15      0.000000000000
  16      0.000000000000
  17      0.000000000000
  18      0.000000000000
  19      0.000000000000
  20      0.000000000000
  21      0.000000000000
  22      0.000000000000
  23      0.000000000000
  24      0.000000000000
  25      0.000000000000
  26      0.000000000000
  27      0.000000000000
  28      0.000000000000
  29      0.000000000000
  30      0.000000000000
  31      0.000000000000
  32      0.000000000000
  33      0.000000000000
  34      0.000000000000
  35      0.000000000000
  36      0.000000000000
  37      0.000000000000
  38      0.000000000000
  39      0.000000000000
  40      0.000000000000
  41      0.000000000000
  42      0.000000000000
  43      0.000000000000
  44      0.000000000000
  45      0.000000000000
  46      0.000000000000
  47      0.000000000000
  48      0.000000000000
  49      0.000000000000
  50      0.000000000000
  51      0.000000000000
  52      0.000000000000
  53      0.000000000000
  54      0.000000000000
  55      0.000000000000
  56      0.000000000000
 Ene=   0.15357229866420E+01
 Spin= Alpha
 Occup=    0.000000
   1      0.019856742680
   2     -0.223118163939
   3     -0.549871914686
   4      0.425272655005
   5      0.015287933670
   6      0.001305258511
   7      3.071655675477
   8      0.111252513595
   9      0.009194684786
  10     -0.112693823492
  11      0.012249034107
  12     -0.226686257836
  13      0.242231886368
  14      0.024656607728
  15     -0.164413273497
  16      1.266458396785
  17     -3.521064324239
  18     -0.049978206132
  19     -0.003237413744
  20     -0.001462308266
  21      1.090097468941
  22      0.048590984443
  23      0.013611261947
  24     -0.036650211914
  25      0.001114920080
  26      0.006330871035
  27      0.062011840394
  28      0.004422932467
  29      0.129472091859
  30     -0.983018914329
  31      2.418915099893
  32      0.249785356983
  33      0.138903039370
  34      0.117542399128
  35     -0.373946477414
  36     -0.874312123470
  37     -0.775742637438
  38      0.003876603052
  39      0.023105709475
  40     -0.047471576217
  41      0.001180359638
  42      0.024201624667
  43      0.127391521734
  44     -0.966920959875
  45      2.373376793138
  46      0.263832284854
  47     -0.118757751798
  48     -0.114518021368
  49     -0.466236395432
  50      0.833628361348
  51      0.762514695834
  52      0.003908150274
  53     -0.018936221829
  54     -0.048930315228
  55      0.005681746143
  56     -0.022350288292
 Ene=   0.15673587936562E+01
 Spin= Alpha
 Occup=    0.000000
   1      0.000000000000
   2      0.000000000000
   3      0.000000000000
   4      0.000000000000
   5      0.000000000000
   6      0.000000000000
   7      0.000000000000
   8      0.000000000000
   9      0.000000000000
  10      0.000000000000
  11      0.000000000000
  12      0.000000000000
  13      0.000000000000
  14      0.000000000000
  15      0.000000000000
  16      0.000000000000
  17      0.000000000000
  18      0.000000000000
  19      0.000000000000
  20      0.000000000000
  21      0.000000000000
  22      0.000000000000
  23      0.000000000000
  24      0.000000000000
  25      0.000000000000
  26      0.000000000000
  27      0.000000000000
  28      0.000000000000
  29      0.000000000000
  30      0.000000000000
  31      0.000000000000
  32      0.000000000000
  33      0.000000000000
  34      0.000000000000
  35      0.000000000000
  36      0.000000000000
  37      0.000000000000
  38      0.000000000000
  39      0.000000000000
  40      0.000000000000
  41      0.000000000000
  42      0.000000000000
  43      0.000000000000
  44      0.000000000000
  45      0.000000000000
  46      0.000000000000
  47      0.000000000000
  48      0.000000000000
  49      0.000000000000
  50      0.000000000000
  51      0.000000000000
  52      0.000000000000
  53      0.000000000000
  54      0.000000000000
  55      0.000000000000
  56      0.000000000000
 Ene=   0.15732108751620E+01
 Spin= Alpha
 Occup=    0.000000
   1      0.000061541783
   2     -0.000509638242
   3     -0.001835341284
   4     -0.004081339051
   5      0.095995487193
   6      0.088481047753
   7     -0.030489377909
   8      0.723181177387
   9      0.646329883622
  10     -0.733419699136
  11     -0.089061212035
  12     -0.094198770015
  13     -0.416726861349
  14     -0.075819406721
  15     -0.000135069907
  16      0.001025096962
  17     -0.003587832165
  18     -0.002188464100
  19      0.043971202428
  20      0.045387752106
  21      0.009491768451
  22     -0.180743949885
  23     -0.146062352620
  24     -0.085622148635
  25      0.021318956597
  26     -0.009709498748
  27     -0.049704276013
  28     -0.002012072699
  29     -0.045967832069
  30      0.352664880454
  31     -1.007184510677
  32      0.040880260375
  33     -0.031602652298
  34      0.060559119644
  35     -0.240615921376
  36      0.025714721642
  37      0.273392897853
  38      0.143262448665
  39     -0.102970164282
  40      0.025191280366
  41      0.067842690815
  42      0.078256830639
  43      0.046436877746
  44     -0.356181435694
  45      1.014950508049
  46     -0.041545606395
  47      0.056876657673
  48     -0.042966982480
  49      0.225056096937
  50      0.294418718416
  51      0.005277360854
  52      0.149945469660
  53      0.079228502490
  54      0.009559105827
  55      0.102634397231
  56     -0.082596480541
 Ene=   0.15737660878794E+01
 Spin= Alpha
 Occup=    0.000000
   1      0.000093654055
   2     -0.000853963957
   3     -0.002186461855
   4     -0.001421697310
   5      0.064624703516
   6      0.026805910873
   7     -0.004964433325
   8      0.326337049543
   9      0.371138053624
  10     -0.007015990348
  11      0.618718678309
  12      0.018119820143
  13      0.038358682431
  14     -0.621662384935
  15     -0.000550108650
  16      0.004233888139
  17     -0.012280923210
  18     -0.003123568192
  19      0.079150982925
  20     -0.040426929967
  21      0.002843147028
  22      0.068053121081
  23     -0.251154001237
  24     -0.004611589978
  25     -0.186594044176
  26     -0.006496488608
  27     -0.014058188270
  28      0.177437791080
  29     -0.022884989867
  30      0.175575504556
  31     -0.502476628946
  32      0.021562074031
  33     -0.022355462173
  34      0.038422129390
  35     -0.123373058763
  36      0.022753364318
  37      0.122281412391
  38      0.112400153423
  39      0.010137722584
  40      0.019433599744
  41      0.061138317638
  42     -0.014971979974
  43      0.023811218074
  44     -0.182681676466
  45      0.519821226441
  46     -0.018550796502
  47     -0.022840684207
  48      0.035010673137
  49      0.115789470657
  50      0.043920828496
  51      0.124245578762
  52     -0.105957731521
  53      0.017125213794
  54     -0.018497741772
  55     -0.054176044622
  56     -0.027392471311
 Ene=   0.15738242224407E+01
 Spin= Alpha
 Occup=    0.000000
   1     -0.000237332237
   2      0.001965528383
   3      0.007026787686
   4      0.015522867174
   5     -0.366967309775
   6     -0.334001757902
   7      0.115435895368
   8     -2.747972821208
   9     -2.464888473449
  10     -0.189868482510
  11      0.327068125491
  12     -0.007232455095
  13     -0.132676223554
  14      0.194851092533
  15      0.000538487004
  16     -0.004089917972
  17      0.014189033996
  18      0.008465722128
  19     -0.171419538860
  20     -0.167680090424
  21     -0.035883559168
  22      0.675187205154
  23      0.570972012096
  24     -0.023544165681
  25     -0.059885167537
  26     -0.005172110877
  27     -0.011095216639
  28     -0.022070890635
  29      0.174799847379
  30     -1.341253169680
  31      3.831778919019
  32     -0.149194790791
  33     -0.066054311514
  34     -0.023141145213
  35      0.932095473120
  36     -0.595152961712
  37     -0.486509081525
  38      0.039435507137
  39      0.013408007785
  40     -0.036858038896
  41      0.056051742005
  42      0.062437884927
  43     -0.176616120542
  44      1.354882788831
  45     -3.861970508619
  46      0.151559674955
  47     -0.027162322638
  48     -0.046919712851
  49     -0.872986743555
  50     -0.615503596553
  51     -0.581425859605
  52      0.039372807553
  53      0.057911356815
  54      0.050440321610
  55     -0.017489909772
  56      0.012807189458
 Ene=   0.15741333911016E+01
 Spin= Alpha
 Occup=    0.000000
   1      0.000000000000
   2      0.000000000000
   3      0.000000000000
   4      0.000000000000
   5      0.000000000000
   6      0.000000000000
   7      0.000000000000
   8      0.000000000000
   9      0.000000000000
  10      0.000000000000
  11      0.000000000000
  12      0.000000000000
  13      0.000000000000
  14      0.000000000000
  15      0.000000000000
  16      0.000000000000
  17      0.000000000000
  18      0.000000000000
  19      0.000000000000
  20      0.000000000000
  21      0.000000000000
  22      0.000000000000
  23      0.000000000000
  24      0.000000000000
  25      0.000000000000
  26      0.000000000000
  27      0.000000000000
  28      0.000000000000
  29      0.000000000000
  30      0.000000000000
  31      0.000000000000
  32      0.000000000000
  33      0.000000000000
  34      0.000000000000
  35      0.000000000000
  36      0.000000000000
  37      0.000000000000
  38      0.000000000000
  39      0.000000000000
  40      0.000000000000
  41      0.000000000000