[Molden Format]
[Title]
generated by TRESC, real part1 of MOs of job CO3
 
[Atoms] AU
 C   1   6    0.3364484192    5.8882927452    0.3891081484
 O   2   8    2.6974300312    5.9862747024    0.4085979628
 O   3   8   -0.7714112401    7.4618585764    1.8371371576
 O   4   8   -0.6184572465    4.2284969646   -1.0743142370
[GTO]
  1 0
 s  5 1.0
     1238.4016938000        0.0059599745
      186.2900499200        0.0422621111
       42.2511763500        0.1866575214
       11.6765579300        0.4675815865
        3.5930506500        0.4422897287
 s  1 1.0
        0.4024514700        1.0000000000
 s  1 1.0
        0.1309018300        1.0000000000
 p  3 1.0
        9.4680970600        0.0570294585
        2.0103545100        0.3130471495
        0.5477100500        0.7605135301
 p  1 1.0
        0.1526861400        1.0000000000
 d  1 1.0
        0.8000000000        1.0000000000
 
  2 0
 s  5 1.0
     2266.1767785000        0.0060711540
      340.8701019100        0.0417308970
       77.3631351700        0.1850777598
       21.4796449400        0.4668774046
        6.6589433100        0.4435718061
 s  1 1.0
        0.8097597600        1.0000000000
 s  1 1.0
        0.2553077200        1.0000000000
 p  3 1.0
       17.7215043200        0.0628680198
        3.8635505400        0.3334973703
        1.0480920900        0.7412421661
 p  1 1.0
        0.2764154400        1.0000000000
 d  1 1.0
        1.2000000000        1.0000000000
 
  3 0
 s  5 1.0
     2266.1767785000        0.0060711540
      340.8701019100        0.0417308970
       77.3631351700        0.1850777598
       21.4796449400        0.4668774046
        6.6589433100        0.4435718061
 s  1 1.0
        0.8097597600        1.0000000000
 s  1 1.0
        0.2553077200        1.0000000000
 p  3 1.0
       17.7215043200        0.0628680198
        3.8635505400        0.3334973703
        1.0480920900        0.7412421661
 p  1 1.0
        0.2764154400        1.0000000000
 d  1 1.0
        1.2000000000        1.0000000000
 
  4 0
 s  5 1.0
     2266.1767785000        0.0060711540
      340.8701019100        0.0417308970
       77.3631351700        0.1850777598
       21.4796449400        0.4668774046
        6.6589433100        0.4435718061
 s  1 1.0
        0.8097597600        1.0000000000
 s  1 1.0
        0.2553077200        1.0000000000
 p  3 1.0
       17.7215043200        0.0628680198
        3.8635505400        0.3334973703
        1.0480920900        0.7412421661
 p  1 1.0
        0.2764154400        1.0000000000
 d  1 1.0
        1.2000000000        1.0000000000
 
[5D]
[7F]
[9G]
[MO]
 Ene=  -0.19840690746523E+02
 Spin= Alpha
 Occup=    1.000000
   1     -0.000314142840
   2     -0.000604086307
   3     -0.011655005461
   4      0.000134533857
   5      0.000006149835
   6      0.000001818990
   7     -0.013476103306
   8     -0.000559375182
   9     -0.000111429718
  10     -0.000950662075
  11      0.000051045494
  12     -0.000541301335
  13      0.001755613749
  14      0.000151241526
  15     -0.987817591233
  16     -0.045451587768
  17      0.034207832604
  18      0.003096750227
  19      0.000128472652
  20      0.000025802166
  21     -0.007839418737
  22     -0.000325470340
  23     -0.000065093216
  24      0.000099348180
  25      0.000007832429
  26     -0.000244028609
  27     -0.000120017088
  28     -0.000007921239
  29      0.001030880256
  30      0.001196100116
  31     -0.001923114682
  32      0.000020802547
  33     -0.000408161955
  34     -0.000368028347
  35      0.001757030544
  36      0.001540777946
  37      0.001335490260
  38      0.000025172406
  39     -0.000218995123
  40     -0.000246583053
  41      0.000023153669
  42     -0.000250931928
  43      0.001017333163
  44      0.001190454841
  45     -0.001925031561
  46     -0.000019056182
  47      0.000407501326
  48      0.000366466531
  49      0.001903379351
  50     -0.001391402838
  51     -0.001304986086
  52      0.000029272367
  53      0.000238390369
  54     -0.000224180828
  55     -0.000017857286
  56      0.000256492160
 Ene=  -0.19811481424872E+02
 Spin= Alpha
 Occup=   -0.000000
   1      0.000000000000
   2      0.000000000000
   3      0.000000000000
   4      0.000000000000
   5      0.000000000000
   6      0.000000000000
   7      0.000000000000
   8      0.000000000000
   9      0.000000000000
  10      0.000000000000
  11      0.000000000000
  12      0.000000000000
  13      0.000000000000
  14      0.000000000000
  15      0.000000000000
  16      0.000000000000
  17      0.000000000000
  18      0.000000000000
  19      0.000000000000
  20      0.000000000000
  21      0.000000000000
  22      0.000000000000
  23      0.000000000000
  24      0.000000000000
  25      0.000000000000
  26      0.000000000000
  27      0.000000000000
  28      0.000000000000
  29      0.000000000000
  30      0.000000000000
  31      0.000000000000
  32      0.000000000000
  33      0.000000000000
  34      0.000000000000
  35      0.000000000000
  36      0.000000000000
  37      0.000000000000
  38      0.000000000000
  39      0.000000000000
  40      0.000000000000
  41      0.000000000000
  42      0.000000000000
  43      0.000000000000
  44      0.000000000000
  45      0.000000000000
  46      0.000000000000
  47      0.000000000000
  48      0.000000000000
  49      0.000000000000
  50      0.000000000000
  51      0.000000000000
  52      0.000000000000
  53      0.000000000000
  54      0.000000000000
  55      0.000000000000
  56      0.000000000000
 Ene=  -0.19781012018315E+02
 Spin= Alpha
 Occup=   -0.000000
   1      0.000000000000
   2      0.000000000000
   3      0.000000000000
   4      0.000000000000
   5      0.000000000000
   6      0.000000000000
   7      0.000000000000
   8      0.000000000000
   9      0.000000000000
  10      0.000000000000
  11      0.000000000000
  12      0.000000000000
  13      0.000000000000
  14      0.000000000000
  15      0.000000000000
  16      0.000000000000
  17      0.000000000000
  18      0.000000000000
  19      0.000000000000
  20      0.000000000000
  21      0.000000000000
  22      0.000000000000
  23      0.000000000000
  24      0.000000000000
  25      0.000000000000
  26      0.000000000000
  27      0.000000000000
  28      0.000000000000
  29      0.000000000000
  30      0.000000000000
  31      0.000000000000
  32      0.000000000000
  33      0.000000000000
  34      0.000000000000
  35      0.000000000000
  36      0.000000000000
  37      0.000000000000
  38      0.000000000000
  39      0.000000000000
  40      0.000000000000
  41      0.000000000000
  42      0.000000000000
  43      0.000000000000
  44      0.000000000000
  45      0.000000000000
  46      0.000000000000
  47      0.000000000000
  48      0.000000000000
  49      0.000000000000
  50      0.000000000000
  51      0.000000000000
  52      0.000000000000
  53      0.000000000000
  54      0.000000000000
  55      0.000000000000
  56      0.000000000000
 Ene=  -0.19779970147119E+02
 Spin= Alpha
 Occup=    0.000000
   1      0.000000000000
   2      0.000000000000
   3      0.000000000000
   4      0.000000000000
   5      0.000000000000
   6      0.000000000000
   7      0.000000000000
   8      0.000000000000
   9      0.000000000000
  10      0.000000000000
  11      0.000000000000
  12      0.000000000000
  13      0.000000000000
  14      0.000000000000
  15      0.000000000000
  16      0.000000000000
  17      0.000000000000
  18      0.000000000000
  19      0.000000000000
  20      0.000000000000
  21      0.000000000000
  22      0.000000000000
  23      0.000000000000
  24      0.000000000000
  25      0.000000000000
  26      0.000000000000
  27      0.000000000000
  28      0.000000000000
  29      0.000000000000
  30      0.000000000000
  31      0.000000000000
  32      0.000000000000
  33      0.000000000000
  34      0.000000000000
  35      0.000000000000
  36      0.000000000000
  37      0.000000000000
  38      0.000000000000
  39      0.000000000000
  40      0.000000000000
  41      0.000000000000
  42      0.000000000000
  43      0.000000000000
  44      0.000000000000
  45      0.000000000000
  46      0.000000000000
  47      0.000000000000
  48      0.000000000000
  49      0.000000000000
  50      0.000000000000
  51      0.000000000000
  52      0.000000000000
  53      0.000000000000
  54      0.000000000000
  55      0.000000000000
  56      0.000000000000
 Ene=  -0.19765286099681E+02
 Spin= Alpha
 Occup=    1.000000
   1      0.000253050669
   2      0.000788520490
   3      0.009088872406
   4     -0.000074921309
   5      0.000148675729
   6      0.000135787254
   7     -0.006384237752
   8      0.011995312255
   9      0.010976023576
  10     -0.000265776006
  11      0.001101807294
  12     -0.001021386746
  13      0.000604972377
  14      0.001228986103
  15      0.001192663016
  16     -0.001065369038
  17      0.002397211025
  18      0.000399857560
  19      0.000226135886
  20      0.000191966543
  21     -0.000785187810
  22     -0.002557244772
  23     -0.002277944925
  24      0.000021461563
  25      0.000254215188
  26      0.000242524330
  27     -0.000104872260
  28      0.000284881516
  29      0.985018671833
  30      0.044075357744
  31     -0.035523011925
  32      0.001445597302
  33     -0.001964808013
  34     -0.001810277099
  35     -0.004201802950
  36      0.005310198871
  37      0.004901032091
  38      0.000079072540
  39     -0.000273174543
  40      0.000084063725
  41     -0.000138762329
  42     -0.000307994295
  43     -0.080042691520
  44     -0.004749781309
  45      0.007955566908
  46     -0.000457468543
  47     -0.000208543271
  48     -0.000173479675
  49      0.003717965590
  50      0.000319854259
  51      0.000174944277
  52     -0.000233526691
  53      0.000236167960
  54     -0.000198178367
  55      0.000430049909
  56      0.000284336736
 Ene=  -0.19764419551770E+02
 Spin= Alpha
 Occup=    1.000000
   1      0.000295945392
   2      0.000933002108
   3      0.010684035909
   4     -0.000076882692
   5     -0.000138397375
   6     -0.000122257743
   7     -0.006352607713
   8     -0.010694772034
   9     -0.009423736356
  10     -0.000339227246
  11     -0.000827465069
  12     -0.001301573458
  13      0.000919655918
  14     -0.000908845612
  15      0.001388514256
  16     -0.001251115862
  17      0.002840631837
  18      0.000488951936
  19     -0.000158007742
  20     -0.000155943290
  21     -0.001168692143
  22      0.002105683469
  23      0.001925183321
  24      0.000017580954
  25     -0.000239704417
  26      0.000255152145
  27     -0.000069900139
  28     -0.000262378760
  29      0.080278420049
  30      0.002407780387
  31      0.002254719670
  32     -0.000244455916
  33     -0.000150122172
  34     -0.000127427651
  35      0.003099359411
  36      0.000862523569
  37      0.000681521366
  38     -0.000229233592
  39     -0.000254235764
  40     -0.000210264159
  41      0.000457941073
  42     -0.000259956131
  43      0.985037127256
  44      0.043887860302
  45     -0.034705869119
  46      0.001194045544
  47      0.002067797065
  48      0.001822687993
  49     -0.003125793939
  50     -0.005667304938
  51     -0.005000411216
  52      0.000048639744
  53      0.000297524011
  54      0.000076190174
  55     -0.000118262975
  56      0.000328640423
 Ene=  -0.10833740145266E+02
 Spin= Alpha
 Occup=    1.000000
   1     -0.987988884648
   2     -0.049797891526
   3     -0.001420971054
   4     -0.000826525211
   5     -0.000044113658
   6     -0.000018343474
   7     -0.000629233252
   8     -0.000028218127
   9     -0.000013231138
  10      0.001095767097
  11      0.000128313109
  12     -0.003731424846
  13     -0.001103988192
  14     -0.000064218890
  15      0.000092434070
  16     -0.000537162590
  17      0.009401034429
  18     -0.001017917104
  19     -0.000041527301
  20     -0.000007894107
  21     -0.007175320292
  22     -0.000299863196
  23     -0.000059826754
  24     -0.000709115536
  25      0.000020483798
  26     -0.000012534266
  27      0.001227011600
  28      0.000101756828
  29      0.000060390857
  30     -0.000738442543
  31      0.008971639070
  32      0.000519846684
  33     -0.000641606853
  34     -0.000592866788
  35      0.003229131925
  36     -0.004799415869
  37     -0.004410727843
  38      0.000054294290
  39     -0.000838875537
  40      0.001147488859
  41     -0.000282804659
  42     -0.000910158075
  43      0.000059434545
  44     -0.000744467929
  45      0.008953514013
  46      0.000454986944
  47      0.000680380540
  48      0.000597573958
  49      0.002760359576
  50      0.005040137653
  51      0.004449311564
  52      0.000073462566
  53      0.000736083426
  54      0.001228364385
  55     -0.000439711866
  56      0.000836167786
 Ene=  -0.10833339085768E+02
 Spin= Alpha
 Occup=    0.000000
   1      0.000000000000
   2      0.000000000000
   3      0.000000000000
   4      0.000000000000
   5      0.000000000000
   6      0.000000000000
   7      0.000000000000
   8      0.000000000000
   9      0.000000000000
  10      0.000000000000
  11      0.000000000000
  12      0.000000000000
  13      0.000000000000
  14      0.000000000000
  15      0.000000000000
  16      0.000000000000
  17      0.000000000000
  18      0.000000000000
  19      0.000000000000
  20      0.000000000000
  21      0.000000000000
  22      0.000000000000
  23      0.000000000000
  24      0.000000000000
  25      0.000000000000
  26      0.000000000000
  27      0.000000000000
  28      0.000000000000
  29      0.000000000000
  30      0.000000000000
  31      0.000000000000
  32      0.000000000000
  33      0.000000000000
  34      0.000000000000
  35      0.000000000000
  36      0.000000000000
  37      0.000000000000
  38      0.000000000000
  39      0.000000000000
  40      0.000000000000
  41      0.000000000000
  42      0.000000000000
  43      0.000000000000
  44      0.000000000000
  45      0.000000000000
  46      0.000000000000
  47      0.000000000000
  48      0.000000000000
  49      0.000000000000
  50      0.000000000000
  51      0.000000000000
  52      0.000000000000
  53      0.000000000000
  54      0.000000000000
  55      0.000000000000
  56      0.000000000000
 Ene=  -0.13631737501209E+01
 Spin= Alpha
 Occup=    1.000000
   1     -0.169640576876
   2      0.333562784586
   3      0.006047980926
   4      0.104330635985
   5      0.004857543762
   6      0.001378291753
   7      0.000531827555
   8      0.000063205492
   9      0.000036949028
  10     -0.011663132342
  11     -0.000371137545
  12      0.016181636683
  13      0.016721673535
  14      0.001252422737
  15     -0.224682158097
  16      0.455068301985
  17      0.240835307448
  18     -0.140849359098
  19     -0.005765645868
  20     -0.001075716113
  21     -0.036686646868
  22     -0.001486124206
  23     -0.000263825390
  24     -0.005593569484
  25     -0.000208588643
  26      0.008305527980
  27      0.007905134247
  28      0.000578682940
  29     -0.081713239958
  30      0.159427490511
  31      0.084025691661
  32      0.041078209867
  33     -0.040282847699
  34     -0.037437758423
  35      0.010868780254
  36     -0.009871621648
  37     -0.009198087086
  38      0.000286465060
  39     -0.005204679807
  40      0.004233593836
  41     -0.001067291987
  42     -0.005698573628
  43     -0.080911447213
  44      0.157846252958
  45      0.083284046535
  46      0.036726107246
  47      0.043083864827
  48      0.037641416360
  49      0.009796376078
  50      0.010654847951
  51      0.009287788958
  52      0.000410343032
  53      0.004742143063
  54      0.004684188321
  55     -0.002016818647
  56      0.005331134322
 Ene=  -0.13369824852030E+01
 Spin= Alpha
 Occup=    0.000000
   1      0.000000000000
   2      0.000000000000
   3      0.000000000000
   4      0.000000000000
   5      0.000000000000
   6      0.000000000000
   7      0.000000000000
   8      0.000000000000
   9      0.000000000000
  10      0.000000000000
  11      0.000000000000
  12      0.000000000000
  13      0.000000000000
  14      0.000000000000
  15      0.000000000000
  16      0.000000000000
  17      0.000000000000
  18      0.000000000000
  19      0.000000000000
  20      0.000000000000
  21      0.000000000000
  22      0.000000000000
  23      0.000000000000
  24      0.000000000000
  25      0.000000000000
  26      0.000000000000
  27      0.000000000000
  28      0.000000000000
  29      0.000000000000
  30      0.000000000000
  31      0.000000000000
  32      0.000000000000
  33      0.000000000000
  34      0.000000000000
  35      0.000000000000
  36      0.000000000000
  37      0.000000000000
  38      0.000000000000
  39      0.000000000000
  40      0.000000000000
  41      0.000000000000
  42      0.000000000000
  43      0.000000000000
  44      0.000000000000
  45      0.000000000000
  46      0.000000000000
  47      0.000000000000
  48      0.000000000000
  49      0.000000000000
  50      0.000000000000
  51      0.000000000000
  52      0.000000000000
  53      0.000000000000
  54      0.000000000000
  55      0.000000000000
  56      0.000000000000
 Ene=  -0.12087884700409E+01
 Spin= Alpha
 Occup=    0.000000
   1      0.000000000000
   2      0.000000000000
   3      0.000000000000
   4      0.000000000000
   5      0.000000000000
   6      0.000000000000
   7      0.000000000000
   8      0.000000000000
   9      0.000000000000
  10      0.000000000000
  11      0.000000000000
  12      0.000000000000
  13      0.000000000000
  14      0.000000000000
  15      0.000000000000
  16      0.000000000000
  17      0.000000000000
  18      0.000000000000
  19      0.000000000000
  20      0.000000000000
  21      0.000000000000
  22      0.000000000000
  23      0.000000000000
  24      0.000000000000
  25      0.000000000000
  26      0.000000000000
  27      0.000000000000
  28      0.000000000000
  29      0.000000000000
  30      0.000000000000
  31      0.000000000000
  32      0.000000000000
  33      0.000000000000
  34      0.000000000000
  35      0.000000000000
  36      0.000000000000
  37      0.000000000000
  38      0.000000000000
  39      0.000000000000
  40      0.000000000000
  41      0.000000000000
  42      0.000000000000
  43      0.000000000000
  44      0.000000000000
  45      0.000000000000
  46      0.000000000000
  47      0.000000000000
  48      0.000000000000
  49      0.000000000000
  50      0.000000000000
  51      0.000000000000
  52      0.000000000000
  53      0.000000000000
  54      0.000000000000
  55      0.000000000000
  56      0.000000000000
 Ene=  -0.11959321270777E+01
 Spin= Alpha
 Occup=    1.000000
   1      0.086151662308
   2     -0.181405201528
   3     -0.022575846360
   4      0.232907411859
   5      0.006802189193
   6     -0.000755866048
   7      0.010747609723
   8      0.000242647619
   9     -0.000093338277
  10     -0.010503011343
  11      0.001628738550
  12     -0.026160904141
  13      0.023643830688
  14      0.002397930561
  15     -0.168265539415
  16      0.347453392983
  17      0.211922212352
  18     -0.054494326915
  19     -0.002787946885
  20     -0.000927529067
  21     -0.016464712642
  22     -0.000856548536
  23     -0.000294696457
  24     -0.000491539524
  25     -0.000205011964
  26      0.006130766301
  27     -0.000448350340
  28     -0.000037690851
  29      0.159675398574
  30     -0.318320375100
  31     -0.187051737964
  32     -0.032933210950
  33      0.065789428776
  34      0.060118280625
  35     -0.008013774505
  36      0.018748671853
  37      0.017092539866
  38     -0.001792139374
  39      0.005103456473
  40     -0.005698272719
  41      0.003998398499
  42      0.005713912522
  43      0.154904434923
  44     -0.308754379862
  45     -0.181621384355
  46     -0.024998931458
  47     -0.066433158008
  48     -0.058990661125
  49     -0.005748095383
  50     -0.018927407909
  51     -0.016846833421
  52     -0.001892249588
  53     -0.004276975691
  54     -0.006046552140
  55      0.004832370822
  56     -0.004688372168
 Ene=  -0.11791874567578E+01
 Spin= Alpha
 Occup=    0.000000
   1      0.000000000000
   2      0.000000000000
   3      0.000000000000
   4      0.000000000000
   5      0.000000000000
   6      0.000000000000
   7      0.000000000000
   8      0.000000000000
   9      0.000000000000
  10      0.000000000000
  11      0.000000000000
  12      0.000000000000
  13      0.000000000000
  14      0.000000000000
  15      0.000000000000
  16      0.000000000000
  17      0.000000000000
  18      0.000000000000
  19      0.000000000000
  20      0.000000000000
  21      0.000000000000
  22      0.000000000000
  23      0.000000000000
  24      0.000000000000
  25      0.000000000000
  26      0.000000000000
  27      0.000000000000
  28      0.000000000000
  29      0.000000000000
  30      0.000000000000
  31      0.000000000000
  32      0.000000000000
  33      0.000000000000
  34      0.000000000000
  35      0.000000000000
  36      0.000000000000
  37      0.000000000000
  38      0.000000000000
  39      0.000000000000
  40      0.000000000000
  41      0.000000000000
  42      0.000000000000
  43      0.000000000000
  44      0.000000000000
  45      0.000000000000
  46      0.000000000000
  47      0.000000000000
  48      0.000000000000
  49      0.000000000000
  50      0.000000000000
  51      0.000000000000
  52      0.000000000000
  53      0.000000000000
  54      0.000000000000
  55      0.000000000000
  56      0.000000000000
 Ene=  -0.11684864365138E+01
 Spin= Alpha
 Occup=    1.000000
   1      0.001378023782
   2     -0.002881360362
   3     -0.000410098027
   4     -0.007886434536
   5      0.219518532657
   6      0.197589728140
   7     -0.000670898500
   8      0.017620772132
   9      0.015861743309
  10     -0.000276417948
  11     -0.016085343384
  12     -0.001100360562
  13      0.001814997155
  14     -0.017831577190
  15     -0.001543864795
  16      0.003190364548
  17      0.001989040892
  18     -0.002403514888
  19      0.041069331391
  20      0.036993888912
  21     -0.000859500971
  22      0.015070577381
  23      0.013574397937
  24     -0.000051286039
  25     -0.003741420251
  26     -0.000129276431
  27      0.000359843950
  28     -0.004147167019
  29     -0.190810641283
  30      0.382293030110
  31      0.224213435461
  32      0.069464180981
  33     -0.060490047605
  34     -0.056455919698
  35      0.021622661057
  36     -0.015081088541
  37     -0.014198331011
  38      0.000275925616
  39     -0.008168807456
  40      0.003756328985
  41     -0.000766583459
  42     -0.008976672566
  43      0.195056906391
  44     -0.390748435875
  45     -0.229332958414
  46     -0.064160800991
  47     -0.067680803162
  48     -0.058932586643
  49     -0.020293229844
  50     -0.017353109381
  51     -0.015000816074
  52     -0.000526703007
  53     -0.007869479298
  54     -0.004706623153
  55      0.002416615571
  56     -0.008808934347
 Ene=  -0.71595860072940E+00
 Spin= Alpha
 Occup=    1.000000
   1     -0.142473681447
   2      0.350378674074
   3      0.010110337055
   4      0.192368713719
   5      0.008425646155
   6      0.001920543725
   7      0.016469238672
   8      0.000665694723
   9      0.000072661571
  10     -0.006405846305
  11      0.000000839692
  12      0.005053363451
  13      0.009991590897
  14      0.000822710587
  15      0.128368213684
  16     -0.271168024967
  17     -0.294474158801
  18     -0.457352799383
  19     -0.018720635735
  20     -0.003554626838
  21     -0.221531172936
  22     -0.009052418274
  23     -0.001704302713
  24     -0.012200574645
  25      0.000630109446
  26     -0.006714437216
  27      0.022483675922
  28      0.001909091290
  29      0.072108408858
  30     -0.149241281035
  31     -0.143000335500
  32      0.098145642156
  33     -0.067493406601
  34     -0.063661138863
  35      0.050919688937
  36     -0.033635408516
  37     -0.031780296522
  38     -0.000881731220
  39     -0.003895837361
  40      0.003184251693
  41      0.001114702930
  42     -0.004156751418
  43      0.071650793594
  44     -0.148272355016
  45     -0.142005625702
  46      0.090608676826
  47      0.074356336681
  48      0.064092094285
  49      0.047141869592
  50      0.037201222046
  51      0.032017418242
  52     -0.000785616847
  53      0.003630748328
  54      0.003499102709
  55      0.000355888720
  56      0.004185530137
 Ene=  -0.69695589883123E+00
 Spin= Alpha
 Occup=    0.000000
   1      0.000000000000
   2      0.000000000000
   3      0.000000000000
   4      0.000000000000
   5      0.000000000000
   6      0.000000000000
   7      0.000000000000
   8      0.000000000000
   9      0.000000000000
  10      0.000000000000
  11      0.000000000000
  12      0.000000000000
  13      0.000000000000
  14      0.000000000000
  15      0.000000000000
  16      0.000000000000
  17      0.000000000000
  18      0.000000000000
  19      0.000000000000
  20      0.000000000000
  21      0.000000000000
  22      0.000000000000
  23      0.000000000000
  24      0.000000000000
  25      0.000000000000
  26      0.000000000000
  27      0.000000000000
  28      0.000000000000
  29      0.000000000000
  30      0.000000000000
  31      0.000000000000
  32      0.000000000000
  33      0.000000000000
  34      0.000000000000
  35      0.000000000000
  36      0.000000000000
  37      0.000000000000
  38      0.000000000000
  39      0.000000000000
  40      0.000000000000
  41      0.000000000000
  42      0.000000000000
  43      0.000000000000
  44      0.000000000000
  45      0.000000000000
  46      0.000000000000
  47      0.000000000000
  48      0.000000000000
  49      0.000000000000
  50      0.000000000000
  51      0.000000000000
  52      0.000000000000
  53      0.000000000000
  54      0.000000000000
  55      0.000000000000
  56      0.000000000000
 Ene=  -0.66390787853252E+00
 Spin= Alpha
 Occup=    1.000000
   1     -0.000016095193
   2      0.000027893600
   3     -0.000163249780
   4     -0.010673880201
   5      0.187986330028
   6      0.169324874640
   7     -0.001692965122
   8      0.030952124812
   9      0.027877956131
  10      0.000307278168
  11      0.018475448425
  12      0.001006563972
  13     -0.001946747101
  14      0.020481134967
  15     -0.000339641943
  16      0.000661482081
  17      0.001064600261
  18     -0.015862681837
  19      0.363061376267
  20      0.326880801712
  21     -0.009574146024
  22      0.214058304364
  23      0.192732978947
  24     -0.000160036779
  25     -0.014249502943
  26     -0.000699902567
  27      0.001351410144
  28     -0.015803308337
  29      0.086096530358
  30     -0.176834605391
  31     -0.201576832374
  32      0.160985963470
  33     -0.108473716826
  34     -0.102435474159
  35      0.089586772764
  36     -0.050786587883
  37     -0.048389078935
  38     -0.001876847464
  39     -0.005023794744
  40      0.006162454519
  41      0.002282202888
  42     -0.005228442919
  43     -0.085545916918
  44      0.175656475300
  45      0.200233135655
  46     -0.149609747887
  47     -0.119608140812
  48     -0.102954637433
  49     -0.084172704684
  50     -0.057055215460
  51     -0.048724583988
  52      0.001780166618
  53     -0.004582846354
  54     -0.006537136573
  55     -0.001351379087
  56     -0.005420826199
 Ene=  -0.65452640353924E+00
 Spin= Alpha
 Occup=   -0.000000
   1      0.000000000000
   2      0.000000000000
   3      0.000000000000
   4      0.000000000000
   5      0.000000000000
   6      0.000000000000
   7      0.000000000000
   8      0.000000000000
   9      0.000000000000
  10      0.000000000000
  11      0.000000000000
  12      0.000000000000
  13      0.000000000000
  14      0.000000000000
  15      0.000000000000
  16      0.000000000000
  17      0.000000000000
  18      0.000000000000
  19      0.000000000000
  20      0.000000000000
  21      0.000000000000
  22      0.000000000000
  23      0.000000000000
  24      0.000000000000
  25      0.000000000000
  26      0.000000000000
  27      0.000000000000
  28      0.000000000000
  29      0.000000000000
  30      0.000000000000
  31      0.000000000000
  32      0.000000000000
  33      0.000000000000
  34      0.000000000000
  35      0.000000000000
  36      0.000000000000
  37      0.000000000000
  38      0.000000000000
  39      0.000000000000
  40      0.000000000000
  41      0.000000000000
  42      0.000000000000
  43      0.000000000000
  44      0.000000000000
  45      0.000000000000
  46      0.000000000000
  47      0.000000000000
  48      0.000000000000
  49      0.000000000000
  50      0.000000000000
  51      0.000000000000
  52      0.000000000000
  53      0.000000000000
  54      0.000000000000
  55      0.000000000000
  56      0.000000000000
 Ene=  -0.64340218653729E+00
 Spin= Alpha
 Occup=    1.000000
   1      0.000146634670
   2     -0.000374543973
   3     -0.000004044441
   4     -0.007231067592
   5      0.239348902718
   6     -0.266189408870
   7     -0.003106212009
   8      0.097806889702
   9     -0.108782779812
  10     -0.000297324678
  11     -0.010971041772
  12     -0.000387124232
  13     -0.000801885461
  14      0.009844752530
  15      0.000062702391
  16     -0.000132782776
  17     -0.000176512513
  18     -0.009426597797
  19      0.281382554436
  20     -0.312978943080
  21     -0.005466253239
  22      0.163936226929
  23     -0.182343028072
  24      0.000235578513
  25      0.017641300432
  26      0.000599603919
  27      0.001178596134
  28     -0.015835016805
  29     -0.000189183074
  30      0.000382217387
  31      0.000468011184
  32     -0.004719131319
  33      0.146966789563
  34     -0.162358554308
  35     -0.002593495042
  36      0.081547071710
  37     -0.090113367258
  38      0.012005834259
  39     -0.005834719754
  40      0.001245915275
  41      0.006597608717