[Molden Format]
[Title]
generated by TRESC, real part1 of MOs of job twisted_C2H4
 
[Atoms] AU
 C   1   6    0.0000000000    0.0000000000    1.3668709329
 H   2   1    0.0000000000    1.7631351343    2.4609882652
 H   3   1    0.0000000000   -1.7631351343    2.4609882652
 C   4   6    0.0000000000    0.0000000000   -1.3668709329
 H   5   1    1.7631351343    0.0000000000   -2.4609882652
 H   6   1   -1.7631351343    0.0000000000   -2.4609882652
[GTO]
  1 0
 s  5 1.0
     1238.4016938000        0.0059599745
      186.2900499200        0.0422621111
       42.2511763500        0.1866575214
       11.6765579300        0.4675815865
        3.5930506500        0.4422897287
 s  1 1.0
        0.4024514700        1.0000000000
 s  1 1.0
        0.1309018300        1.0000000000
 p  3 1.0
        9.4680970600        0.0570294585
        2.0103545100        0.3130471495
        0.5477100500        0.7605135301
 p  1 1.0
        0.1526861400        1.0000000000
 d  1 1.0
        0.8000000000        1.0000000000
 
  2 0
 s  3 1.0
       13.0107010000        0.0391282527
        1.9622572000        0.2855840539
        0.4445379600        0.7689908602
 s  1 1.0
        0.1219496200        1.0000000000
 p  1 1.0
        0.8000000000        1.0000000000
 
  3 0
 s  3 1.0
       13.0107010000        0.0391282527
        1.9622572000        0.2855840539
        0.4445379600        0.7689908602
 s  1 1.0
        0.1219496200        1.0000000000
 p  1 1.0
        0.8000000000        1.0000000000
 
  4 0
 s  5 1.0
     1238.4016938000        0.0059599745
      186.2900499200        0.0422621111
       42.2511763500        0.1866575214
       11.6765579300        0.4675815865
        3.5930506500        0.4422897287
 s  1 1.0
        0.4024514700        1.0000000000
 s  1 1.0
        0.1309018300        1.0000000000
 p  3 1.0
        9.4680970600        0.0570294585
        2.0103545100        0.3130471495
        0.5477100500        0.7605135301
 p  1 1.0
        0.1526861400        1.0000000000
 d  1 1.0
        0.8000000000        1.0000000000
 
  5 0
 s  3 1.0
       13.0107010000        0.0391282527
        1.9622572000        0.2855840539
        0.4445379600        0.7689908602
 s  1 1.0
        0.1219496200        1.0000000000
 p  1 1.0
        0.8000000000        1.0000000000
 
  6 0
 s  3 1.0
       13.0107010000        0.0391282527
        1.9622572000        0.2855840539
        0.4445379600        0.7689908602
 s  1 1.0
        0.1219496200        1.0000000000
 p  1 1.0
        0.8000000000        1.0000000000
 
[5D]
[7F]
[9G]
[MO]
 Ene=  -0.10234879625845E+02
 Spin= Alpha
 Occup=    1.000000
   1     -0.698371184744
   2     -0.034927923971
   3      0.020199487476
   4     -0.002832882749
   5      0.000000000000
   6     -0.000000000000
   7      0.001231076965
   8      0.000000000000
   9      0.000000000000
  10      0.000974615303
  11      0.000000000000
  12     -0.000000000000
  13      0.001540262689
  14      0.000000000000
  15      0.003319995086
  16     -0.006175941431
  17     -0.000959554003
  18      0.000000000000
  19     -0.002062672772
  20      0.003319995086
  21     -0.006175941431
  22     -0.000959554003
  23     -0.000000000000
  24      0.002062672772
  25     -0.698371184556
  26     -0.034927923960
  27      0.020199487467
  28      0.002832882750
  29     -0.000000000000
  30      0.000000000000
  31     -0.001231076966
  32     -0.000000000000
  33     -0.000000000000
  34      0.000974615304
  35     -0.000000000000
  36     -0.000000000000
  37     -0.001540262689
  38     -0.000000000000
  39      0.003319995085
  40     -0.006175941429
  41      0.000959554002
  42     -0.002062672771
  43      0.000000000000
  44      0.003319995085
  45     -0.006175941429
  46      0.000959554002
  47      0.002062672771
  48      0.000000000000
 Ene=  -0.10234817600683E+02
 Spin= Alpha
 Occup=    1.000000
   1      0.697587004559
   2      0.039552920628
   3     -0.033225949316
   4     -0.001134205533
   5     -0.000000000000
   6     -0.000000000000
   7      0.004075943261
   8      0.000000000000
   9     -0.000000000000
  10      0.002210403511
  11      0.000000000000
  12     -0.000000000000
  13     -0.001654320061
  14      0.000000000000
  15     -0.003319749856
  16      0.005024901347
  17      0.001492422908
  18      0.000000000000
  19      0.002478853174
  20     -0.003319749856
  21      0.005024901347
  22      0.001492422908
  23      0.000000000000
  24     -0.002478853174
  25     -0.697587004747
  26     -0.039552920637
  27      0.033225949321
  28     -0.001134205533
  29      0.000000000000
  30     -0.000000000000
  31      0.004075943261
  32     -0.000000000000
  33      0.000000000000
  34     -0.002210403511
  35     -0.000000000000
  36      0.000000000000
  37     -0.001654320061
  38     -0.000000000000
  39      0.003319749857
  40     -0.005024901349
  41      0.001492422908
  42     -0.002478853175
  43      0.000000000000
  44      0.003319749857
  45     -0.005024901349
  46      0.001492422908
  47      0.002478853175
  48     -0.000000000000
 Ene=  -0.10220301737189E+02
 Spin= Alpha
 Occup=    0.000000
   1      0.000000000000
   2      0.000000000000
   3      0.000000000000
   4      0.000000000000
   5      0.000000000000
   6      0.000000000000
   7      0.000000000000
   8      0.000000000000
   9      0.000000000000
  10      0.000000000000
  11      0.000000000000
  12      0.000000000000
  13      0.000000000000
  14      0.000000000000
  15      0.000000000000
  16      0.000000000000
  17      0.000000000000
  18      0.000000000000
  19      0.000000000000
  20      0.000000000000
  21      0.000000000000
  22      0.000000000000
  23      0.000000000000
  24      0.000000000000
  25      0.000000000000
  26      0.000000000000
  27      0.000000000000
  28      0.000000000000
  29      0.000000000000
  30      0.000000000000
  31      0.000000000000
  32      0.000000000000
  33      0.000000000000
  34      0.000000000000
  35      0.000000000000
  36      0.000000000000
  37      0.000000000000
  38      0.000000000000
  39      0.000000000000
  40      0.000000000000
  41      0.000000000000
  42      0.000000000000
  43      0.000000000000
  44      0.000000000000
  45      0.000000000000
  46      0.000000000000
  47      0.000000000000
  48      0.000000000000
 Ene=  -0.10220208520017E+02
 Spin= Alpha
 Occup=    0.000000
   1      0.000000000000
   2      0.000000000000
   3      0.000000000000
   4      0.000000000000
   5      0.000000000000
   6      0.000000000000
   7      0.000000000000
   8      0.000000000000
   9      0.000000000000
  10      0.000000000000
  11      0.000000000000
  12      0.000000000000
  13      0.000000000000
  14      0.000000000000
  15      0.000000000000
  16      0.000000000000
  17      0.000000000000
  18      0.000000000000
  19      0.000000000000
  20      0.000000000000
  21      0.000000000000
  22      0.000000000000
  23      0.000000000000
  24      0.000000000000
  25      0.000000000000
  26      0.000000000000
  27      0.000000000000
  28      0.000000000000
  29      0.000000000000
  30      0.000000000000
  31      0.000000000000
  32      0.000000000000
  33      0.000000000000
  34      0.000000000000
  35      0.000000000000
  36      0.000000000000
  37      0.000000000000
  38      0.000000000000
  39      0.000000000000
  40      0.000000000000
  41      0.000000000000
  42      0.000000000000
  43      0.000000000000
  44      0.000000000000
  45      0.000000000000
  46      0.000000000000
  47      0.000000000000
  48      0.000000000000
 Ene=  -0.77399528150751E+00
 Spin= Alpha
 Occup=    1.000000
   1      0.199400883821
   2     -0.391821576161
   3     -0.142273174820
   4      0.090453570257
   5      0.000000000000
   6      0.000000000000
   7      0.017887505830
   8      0.000000000000
   9      0.000000000000
  10     -0.007714211772
  11     -0.000000000000
  12      0.000000000000
  13     -0.003718626428
  14      0.000000000000
  15     -0.100152019975
  16     -0.009401756061
  17      0.007483854863
  18     -0.000000000000
  19      0.010818283989
  20     -0.100152019975
  21     -0.009401756061
  22      0.007483854863
  23     -0.000000000000
  24     -0.010818283989
  25      0.199400883821
  26     -0.391821576161
  27     -0.142273174820
  28     -0.090453570257
  29      0.000000000000
  30     -0.000000000000
  31     -0.017887505830
  32     -0.000000000000
  33     -0.000000000000
  34     -0.007714211772
  35      0.000000000000
  36     -0.000000000000
  37      0.003718626428
  38      0.000000000000
  39     -0.100152019975
  40     -0.009401756061
  41     -0.007483854863
  42      0.010818283989
  43      0.000000000000
  44     -0.100152019975
  45     -0.009401756061
  46     -0.007483854863
  47     -0.010818283989
  48      0.000000000000
 Ene=  -0.72237471896601E+00
 Spin= Alpha
 Occup=   -0.000000
   1      0.000000000000
   2      0.000000000000
   3      0.000000000000
   4      0.000000000000
   5      0.000000000000
   6      0.000000000000
   7      0.000000000000
   8      0.000000000000
   9      0.000000000000
  10      0.000000000000
  11      0.000000000000
  12      0.000000000000
  13      0.000000000000
  14      0.000000000000
  15      0.000000000000
  16      0.000000000000
  17      0.000000000000
  18      0.000000000000
  19      0.000000000000
  20      0.000000000000
  21      0.000000000000
  22      0.000000000000
  23      0.000000000000
  24      0.000000000000
  25      0.000000000000
  26      0.000000000000
  27      0.000000000000
  28      0.000000000000
  29      0.000000000000
  30      0.000000000000
  31      0.000000000000
  32      0.000000000000
  33      0.000000000000
  34      0.000000000000
  35      0.000000000000
  36      0.000000000000
  37      0.000000000000
  38      0.000000000000
  39      0.000000000000
  40      0.000000000000
  41      0.000000000000
  42      0.000000000000
  43      0.000000000000
  44      0.000000000000
  45      0.000000000000
  46      0.000000000000
  47      0.000000000000
  48      0.000000000000
 Ene=  -0.61395845673558E+00
 Spin= Alpha
 Occup=    1.000000
   1      0.163810424752
   2     -0.332943555928
   3     -0.200928353193
   4     -0.149941668071
   5     -0.000000000000
   6     -0.000000000000
   7     -0.039010789288
   8     -0.000000000000
   9     -0.000000000000
  10      0.009969780475
  11      0.000000000000
  12     -0.000000000000
  13      0.002423686076
  14      0.000000000000
  15     -0.170115196928
  16     -0.030825067256
  17      0.004398661815
  18      0.000000000000
  19      0.013149019734
  20     -0.170115196928
  21     -0.030825067256
  22      0.004398661815
  23     -0.000000000000
  24     -0.013149019734
  25     -0.163810424752
  26      0.332943555928
  27      0.200928353192
  28     -0.149941668071
  29      0.000000000000
  30     -0.000000000000
  31     -0.039010789287
  32      0.000000000000
  33      0.000000000000
  34     -0.009969780475
  35     -0.000000000000
  36      0.000000000000
  37      0.002423686076
  38     -0.000000000000
  39      0.170115196928
  40      0.030825067256
  41      0.004398661815
  42     -0.013149019734
  43     -0.000000000000
  44      0.170115196928
  45      0.030825067256
  46      0.004398661815
  47      0.013149019734
  48     -0.000000000000
 Ene=  -0.57110000929795E+00
 Spin= Alpha
 Occup=   -0.000000
   1      0.000000000000
   2      0.000000000000
   3      0.000000000000
   4      0.000000000000
   5      0.000000000000
   6      0.000000000000
   7      0.000000000000
   8      0.000000000000
   9      0.000000000000
  10      0.000000000000
  11      0.000000000000
  12      0.000000000000
  13      0.000000000000
  14      0.000000000000
  15      0.000000000000
  16      0.000000000000
  17      0.000000000000
  18      0.000000000000
  19      0.000000000000
  20      0.000000000000
  21      0.000000000000
  22      0.000000000000
  23      0.000000000000
  24      0.000000000000
  25      0.000000000000
  26      0.000000000000
  27      0.000000000000
  28      0.000000000000
  29      0.000000000000
  30      0.000000000000
  31      0.000000000000
  32      0.000000000000
  33      0.000000000000
  34      0.000000000000
  35      0.000000000000
  36      0.000000000000
  37      0.000000000000
  38      0.000000000000
  39      0.000000000000
  40      0.000000000000
  41      0.000000000000
  42      0.000000000000
  43      0.000000000000
  44      0.000000000000
  45      0.000000000000
  46      0.000000000000
  47      0.000000000000
  48      0.000000000000
 Ene=  -0.44840097511003E+00
 Spin= Alpha
 Occup=    1.000000
   1     -0.000000000000
   2      0.000000000000
   3      0.000000000000
   4     -0.000000000000
   5      0.179636871534
   6      0.046875220721
   7     -0.000000000000
   8      0.088128998740
   9      0.020703942640
  10      0.000000000000
  11     -0.013887949942
  12      0.001427455317
  13      0.000000000000
  14     -0.000000000000
  15      0.029191901024
  16      0.010617881084
  17     -0.000896795800
  18      0.003999589758
  19     -0.000435718258
  20     -0.029191901024
  21     -0.010617881084
  22      0.000896795800
  23      0.003999589758
  24     -0.000435718258
  25     -0.000000000000
  26      0.000000000000
  27     -0.000000000000
  28      0.000000000000
  29      0.435422763329
  30      0.019338717936
  31      0.000000000000
  32      0.192318409975
  33      0.009487483466
  34      0.000000000000
  35     -0.013259597056
  36      0.001495100334
  37     -0.000000000000
  38      0.000000000000
  39      0.271162844998
  40      0.098629234193
  41      0.008330313958
  42     -0.004047376096
  43      0.000430573843
  44     -0.271162844998
  45     -0.098629234193
  46     -0.008330313958
  47     -0.004047376096
  48      0.000430573843
 Ene=  -0.44840097511003E+00
 Spin= Alpha
 Occup=    1.000000
   1     -0.000000000000
   2      0.000000000000
   3     -0.000000000000
   4     -0.000000000000
   5      0.019338717936
   6     -0.435422763329
   7      0.000000000000
   8      0.009487483466
   9     -0.192318409975
  10     -0.000000000000
  11     -0.001495100334
  12     -0.013259597056
  13      0.000000000000
  14      0.000000000000
  15     -0.271162844998
  16     -0.098629234193
  17      0.008330313958
  18      0.000430573843
  19      0.004047376096
  20      0.271162844998
  21      0.098629234193
  22     -0.008330313958
  23      0.000430573843
  24      0.004047376096
  25      0.000000000000
  26     -0.000000000000
  27      0.000000000000
  28      0.000000000000
  29      0.046875220721
  30     -0.179636871534
  31      0.000000000000
  32      0.020703942640
  33     -0.088128998740
  34      0.000000000000
  35     -0.001427455317
  36     -0.013887949942
  37     -0.000000000000
  38     -0.000000000000
  39      0.029191901024
  40      0.010617881084
  41      0.000896795800
  42     -0.000435718258
  43     -0.003999589758
  44     -0.029191901024
  45     -0.010617881084
  46     -0.000896795800
  47     -0.000435718258
  48     -0.003999589758
 Ene=  -0.43114454586536E+00
 Spin= Alpha
 Occup=    1.000000
   1      0.012605705360
   2     -0.035973991258
   3      0.019110540603
   4      0.409356569165
   5      0.000000000000
   6     -0.000000000000
   7      0.163550247466
   8      0.000000000000
   9     -0.000000000000
  10     -0.011567846611
  11     -0.000000000000
  12     -0.000000000000
  13     -0.008081688818
  14     -0.000000000000
  15      0.152998358139
  16      0.058886789551
  17      0.003881684503
  18      0.000000000000
  19     -0.007970719548
  20      0.152998358139
  21      0.058886789551
  22      0.003881684503
  23      0.000000000000
  24      0.007970719548
  25      0.012605705360
  26     -0.035973991258
  27      0.019110540603
  28     -0.409356569165
  29      0.000000000000
  30     -0.000000000000
  31     -0.163550247467
  32      0.000000000000
  33     -0.000000000000
  34     -0.011567846611
  35     -0.000000000000
  36     -0.000000000000
  37      0.008081688818
  38      0.000000000000
  39      0.152998358139
  40      0.058886789551
  41     -0.003881684503
  42     -0.007970719548
  43     -0.000000000000
  44      0.152998358139
  45      0.058886789551
  46     -0.003881684503
  47      0.007970719548
  48     -0.000000000000
 Ene=  -0.42104343519683E+00
 Spin= Alpha
 Occup=   -0.000000
   1      0.000000000000
   2      0.000000000000
   3      0.000000000000
   4      0.000000000000
   5      0.000000000000
   6      0.000000000000
   7      0.000000000000
   8      0.000000000000
   9      0.000000000000
  10      0.000000000000
  11      0.000000000000
  12      0.000000000000
  13      0.000000000000
  14      0.000000000000
  15      0.000000000000
  16      0.000000000000
  17      0.000000000000
  18      0.000000000000
  19      0.000000000000
  20      0.000000000000
  21      0.000000000000
  22      0.000000000000
  23      0.000000000000
  24      0.000000000000
  25      0.000000000000
  26      0.000000000000
  27      0.000000000000
  28      0.000000000000
  29      0.000000000000
  30      0.000000000000
  31      0.000000000000
  32      0.000000000000
  33      0.000000000000
  34      0.000000000000
  35      0.000000000000
  36      0.000000000000
  37      0.000000000000
  38      0.000000000000
  39      0.000000000000
  40      0.000000000000
  41      0.000000000000
  42      0.000000000000
  43      0.000000000000
  44      0.000000000000
  45      0.000000000000
  46      0.000000000000
  47      0.000000000000
  48      0.000000000000
 Ene=  -0.42104343519683E+00
 Spin= Alpha
 Occup=    0.000000
   1      0.000000000000
   2      0.000000000000
   3      0.000000000000
   4      0.000000000000
   5      0.000000000000
   6      0.000000000000
   7      0.000000000000
   8      0.000000000000
   9      0.000000000000
  10      0.000000000000
  11      0.000000000000
  12      0.000000000000
  13      0.000000000000
  14      0.000000000000
  15      0.000000000000
  16      0.000000000000
  17      0.000000000000
  18      0.000000000000
  19      0.000000000000
  20      0.000000000000
  21      0.000000000000
  22      0.000000000000
  23      0.000000000000
  24      0.000000000000
  25      0.000000000000
  26      0.000000000000
  27      0.000000000000
  28      0.000000000000
  29      0.000000000000
  30      0.000000000000
  31      0.000000000000
  32      0.000000000000
  33      0.000000000000
  34      0.000000000000
  35      0.000000000000
  36      0.000000000000
  37      0.000000000000
  38      0.000000000000
  39      0.000000000000
  40      0.000000000000
  41      0.000000000000
  42      0.000000000000
  43      0.000000000000
  44      0.000000000000
  45      0.000000000000
  46      0.000000000000
  47      0.000000000000
  48      0.000000000000
 Ene=  -0.41134110041841E+00
 Spin= Alpha
 Occup=   -0.000000
   1      0.000000000000
   2      0.000000000000
   3      0.000000000000
   4      0.000000000000
   5      0.000000000000
   6      0.000000000000
   7      0.000000000000
   8      0.000000000000
   9      0.000000000000
  10      0.000000000000
  11      0.000000000000
  12      0.000000000000
  13      0.000000000000
  14      0.000000000000
  15      0.000000000000
  16      0.000000000000
  17      0.000000000000
  18      0.000000000000
  19      0.000000000000
  20      0.000000000000
  21      0.000000000000
  22      0.000000000000
  23      0.000000000000
  24      0.000000000000
  25      0.000000000000
  26      0.000000000000
  27      0.000000000000
  28      0.000000000000
  29      0.000000000000
  30      0.000000000000
  31      0.000000000000
  32      0.000000000000
  33      0.000000000000
  34      0.000000000000
  35      0.000000000000
  36      0.000000000000
  37      0.000000000000
  38      0.000000000000
  39      0.000000000000
  40      0.000000000000
  41      0.000000000000
  42      0.000000000000
  43      0.000000000000
  44      0.000000000000
  45      0.000000000000
  46      0.000000000000
  47      0.000000000000
  48      0.000000000000
 Ene=  -0.22808676477708E+00
 Spin= Alpha
 Occup=    1.000000
   1     -0.000000000000
   2      0.000000000000
   3      0.000000000000
   4      0.000000000000
   5     -0.584162361745
   6     -0.017617726980
   7     -0.000000000000
   8     -0.515063361615
   9     -0.013649597618
  10      0.000000000000
  11     -0.002148749295
  12     -0.006018673530
  13      0.000000000000
  14     -0.000000000000
  15     -0.025797040158
  16     -0.021219416261
  17     -0.000319205876
  18     -0.018836809689
  19     -0.000005941809
  20      0.025797040158
  21      0.021219416261
  22      0.000319205876
  23     -0.018836809689
  24     -0.000005941809
  25     -0.000000000000
  26      0.000000000000
  27     -0.000000000000
  28     -0.000000000000
  29      0.108585864893
  30      0.094778570040
  31     -0.000000000000
  32      0.084128523757
  33      0.083567467010
  34      0.000000000000
  35     -0.037095754263
  36     -0.000348628051
  37     -0.000000000000
  38      0.000000000000
  39      0.158998599563
  40      0.130784673292
  41     -0.001967407383
  42      0.000036622003
  43      0.003056215195
  44     -0.158998599563
  45     -0.130784673292
  46      0.001967407383
  47      0.000036622003
  48      0.003056215195
 Ene=  -0.22808676477708E+00
 Spin= Alpha
 Occup=    1.000000
   1     -0.000000000000
   2      0.000000000000
   3     -0.000000000000
   4      0.000000000000
   5      0.094778570040
   6     -0.108585864893
   7      0.000000000000
   8      0.083567467010
   9     -0.084128523757
  10     -0.000000000000
  11      0.000348628051
  12     -0.037095754263
  13      0.000000000000
  14      0.000000000000
  15     -0.158998599563
  16     -0.130784673292
  17     -0.001967407383
  18      0.003056215195
  19     -0.000036622003
  20      0.158998599563
  21      0.130784673292
  22      0.001967407383
  23      0.003056215195
  24     -0.000036622003
  25      0.000000000000
  26     -0.000000000000
  27      0.000000000000
  28     -0.000000000000
  29     -0.017617726980
  30      0.584162361745
  31      0.000000000000
  32     -0.013649597618
  33      0.515063361615
  34      0.000000000000
  35      0.006018673530
  36     -0.002148749295
  37      0.000000000000
  38      0.000000000000
  39     -0.025797040158
  40     -0.021219416261
  41      0.000319205876
  42     -0.000005941809
  43      0.018836809689
  44      0.025797040158
  45      0.021219416261
  46     -0.000319205876
  47     -0.000005941809
  48      0.018836809689
 Ene=  -0.41651580737980E-01
 Spin= Alpha
 Occup=    0.000000
   1      0.000000000000
   2      0.000000000000
   3      0.000000000000
   4      0.000000000000
   5      0.000000000000
   6      0.000000000000
   7      0.000000000000
   8      0.000000000000
   9      0.000000000000
  10      0.000000000000
  11      0.000000000000
  12      0.000000000000
  13      0.000000000000
  14      0.000000000000
  15      0.000000000000
  16      0.000000000000
  17      0.000000000000
  18      0.000000000000
  19      0.000000000000
  20      0.000000000000
  21      0.000000000000
  22      0.000000000000
  23      0.000000000000
  24      0.000000000000
  25      0.000000000000
  26      0.000000000000
  27      0.000000000000
  28      0.000000000000
  29      0.000000000000
  30      0.000000000000
  31      0.000000000000
  32      0.000000000000
  33      0.000000000000
  34      0.000000000000
  35      0.000000000000
  36      0.000000000000
  37      0.000000000000
  38      0.000000000000
  39      0.000000000000
  40      0.000000000000
  41      0.000000000000
  42      0.000000000000
  43      0.000000000000
  44      0.000000000000
  45      0.000000000000
  46      0.000000000000
  47      0.000000000000
  48      0.000000000000
 Ene=  -0.41651580737978E-01
 Spin= Alpha
 Occup=    0.000000
   1      0.000000000000
   2      0.000000000000
   3      0.000000000000
   4      0.000000000000
   5      0.000000000000
   6      0.000000000000
   7      0.000000000000
   8      0.000000000000
   9      0.000000000000
  10      0.000000000000
  11      0.000000000000
  12      0.000000000000
  13      0.000000000000
  14      0.000000000000
  15      0.000000000000
  16      0.000000000000
  17      0.000000000000
  18      0.000000000000
  19      0.000000000000
  20      0.000000000000
  21      0.000000000000
  22      0.000000000000
  23      0.000000000000
  24      0.000000000000
  25      0.000000000000
  26      0.000000000000
  27      0.000000000000
  28      0.000000000000
  29      0.000000000000
  30      0.000000000000
  31      0.000000000000
  32      0.000000000000
  33      0.000000000000
  34      0.000000000000
  35      0.000000000000
  36      0.000000000000
  37      0.000000000000
  38      0.000000000000
  39      0.000000000000
  40      0.000000000000
  41      0.000000000000
  42      0.000000000000
  43      0.000000000000
  44      0.000000000000
  45      0.000000000000
  46      0.000000000000
  47      0.000000000000
  48      0.000000000000
 Ene=   0.97628071552184E-01
 Spin= Alpha
 Occup=    0.000000
   1      0.114763050324
   2     -0.197760862008
   3     -1.984473187917
   4     -0.049442914286
   5      0.000000000000
   6     -0.000000000000
   7     -0.085678978065
   8     -0.000000000000
   9     -0.000000000000
  10      0.010202949327
  11     -0.000000000000
  12     -0.000000000000
  13     -0.018615790844
  14     -0.000000000000
  15      0.082961348566
  16      1.035570788863
  17      0.004132817817
  18      0.000000000000
  19      0.008513518700
  20      0.082961348566
  21      1.035570788863
  22      0.004132817817
  23      0.000000000000
  24     -0.008513518700
  25     -0.114763050323
  26      0.197760862007
  27      1.984473187906
  28     -0.049442914285
  29      0.000000000000
  30      0.000000000000
  31     -0.085678978061
  32      0.000000000000
  33      0.000000000000
  34     -0.010202949327
  35     -0.000000000000
  36     -0.000000000000
  37     -0.018615790844
  38     -0.000000000000
  39     -0.082961348566
  40     -1.035570788855
  41      0.004132817817
  42     -0.008513518700
  43     -0.000000000000
  44     -0.082961348566
  45     -1.035570788855
  46      0.004132817817
  47      0.008513518700
  48     -0.000000000000
 Ene=   0.10351390154421E+00
 Spin= Alpha
 Occup=    0.000000
   1     -0.093345346898
   2      0.221030738958
   3      1.429779819593
   4      0.162403363427
   5      0.000000000000
   6     -0.000000000000
   7      0.512050022144
   8     -0.000000000000
   9     -0.000000000000
  10      0.005541433156
  11     -0.000000000000
  12     -0.000000000000
  13      0.002923540070
  14     -0.000000000000
  15     -0.027093962154
  16     -1.077395235166
  17      0.000744366160
  18      0.000000000000
  19     -0.006620751142
  20     -0.027093962154
  21     -1.077395235166
  22      0.000744366160
  23      0.000000000000
  24      0.006620751142
  25     -0.093345346899
  26      0.221030738960
  27      1.429779819606
  28     -0.162403363428
  29      0.000000000000
  30      0.000000000000
  31     -0.512050022146
  32      0.000000000000
  33      0.000000000000
  34      0.005541433156
  35     -0.000000000000
  36     -0.000000000000
  37     -0.002923540070
  38     -0.000000000000
  39     -0.027093962154
  40     -1.077395235174
  41     -0.000744366160
  42     -0.006620751142
  43     -0.000000000000
  44     -0.027093962154
  45     -1.077395235173
  46     -0.000744366160
  47      0.006620751142
  48      0.000000000000
 Ene=   0.11608092397557E+00
 Spin= Alpha
 Occup=    0.000000
   1      0.000000000000
   2      0.000000000000
   3      0.000000000000
   4      0.000000000000
   5      0.000000000000
   6      0.000000000000
   7      0.000000000000
   8      0.000000000000
   9      0.000000000000
  10      0.000000000000
  11      0.000000000000
  12      0.000000000000
  13      0.000000000000
  14      0.000000000000
  15      0.000000000000
  16      0.000000000000
  17      0.000000000000
  18      0.000000000000
  19      0.000000000000
  20      0.000000000000
  21      0.000000000000
  22      0.000000000000
  23      0.000000000000
  24      0.000000000000
  25      0.000000000000
  26      0.000000000000
  27      0.000000000000
  28      0.000000000000
  29      0.000000000000
  30      0.000000000000
  31      0.000000000000
  32      0.000000000000
  33      0.000000000000
  34      0.000000000000
  35      0.000000000000
  36      0.000000000000
  37      0.000000000000
  38      0.000000000000
  39      0.000000000000
  40      0.000000000000
  41      0.000000000000
  42      0.000000000000
  43      0.000000000000
  44      0.000000000000
  45      0.000000000000
  46      0.000000000000
  47      0.000000000000
  48      0.000000000000
 Ene=   0.11972975540634E+00
 Spin= Alpha
 Occup=    0.000000
   1      0.000000000000
   2      0.000000000000
   3      0.000000000000
   4      0.000000000000
   5      0.000000000000
   6      0.000000000000
   7      0.000000000000
   8      0.000000000000
   9      0.000000000000
  10      0.000000000000
  11      0.000000000000
  12      0.000000000000
  13      0.000000000000
  14      0.000000000000
  15      0.000000000000
  16      0.000000000000
  17      0.000000000000
  18      0.000000000000
  19      0.000000000000
  20      0.000000000000
  21      0.000000000000
  22      0.000000000000
  23      0.000000000000
  24      0.000000000000
  25      0.000000000000
  26      0.000000000000
  27      0.000000000000
  28      0.000000000000
  29      0.000000000000
  30      0.000000000000
  31      0.000000000000
  32      0.000000000000
  33      0.000000000000
  34      0.000000000000