[Molden Format]
[Title]
generated by TRESC, real part2 of MOs of job twisted_C2H4
 
[Atoms] AU
 C   1   6    0.0000000000    0.0000000000    1.3668709329
 H   2   1    0.0000000000    1.7631351343    2.4609882652
 H   3   1    0.0000000000   -1.7631351343    2.4609882652
 C   4   6    0.0000000000    0.0000000000   -1.3668709329
 H   5   1    1.7631351343    0.0000000000   -2.4609882652
 H   6   1   -1.7631351343    0.0000000000   -2.4609882652
[GTO]
  1 0
 s  5 1.0
     1238.4016938000        0.0059599745
      186.2900499200        0.0422621111
       42.2511763500        0.1866575214
       11.6765579300        0.4675815865
        3.5930506500        0.4422897287
 s  1 1.0
        0.4024514700        1.0000000000
 s  1 1.0
        0.1309018300        1.0000000000
 p  3 1.0
        9.4680970600        0.0570294585
        2.0103545100        0.3130471495
        0.5477100500        0.7605135301
 p  1 1.0
        0.1526861400        1.0000000000
 d  1 1.0
        0.8000000000        1.0000000000
 
  2 0
 s  3 1.0
       13.0107010000        0.0391282527
        1.9622572000        0.2855840539
        0.4445379600        0.7689908602
 s  1 1.0
        0.1219496200        1.0000000000
 p  1 1.0
        0.8000000000        1.0000000000
 
  3 0
 s  3 1.0
       13.0107010000        0.0391282527
        1.9622572000        0.2855840539
        0.4445379600        0.7689908602
 s  1 1.0
        0.1219496200        1.0000000000
 p  1 1.0
        0.8000000000        1.0000000000
 
  4 0
 s  5 1.0
     1238.4016938000        0.0059599745
      186.2900499200        0.0422621111
       42.2511763500        0.1866575214
       11.6765579300        0.4675815865
        3.5930506500        0.4422897287
 s  1 1.0
        0.4024514700        1.0000000000
 s  1 1.0
        0.1309018300        1.0000000000
 p  3 1.0
        9.4680970600        0.0570294585
        2.0103545100        0.3130471495
        0.5477100500        0.7605135301
 p  1 1.0
        0.1526861400        1.0000000000
 d  1 1.0
        0.8000000000        1.0000000000
 
  5 0
 s  3 1.0
       13.0107010000        0.0391282527
        1.9622572000        0.2855840539
        0.4445379600        0.7689908602
 s  1 1.0
        0.1219496200        1.0000000000
 p  1 1.0
        0.8000000000        1.0000000000
 
  6 0
 s  3 1.0
       13.0107010000        0.0391282527
        1.9622572000        0.2855840539
        0.4445379600        0.7689908602
 s  1 1.0
        0.1219496200        1.0000000000
 p  1 1.0
        0.8000000000        1.0000000000
 
[5D]
[7F]
[9G]
[MO]
 Ene=   0.71655126808865E+00
 Spin= Alpha
 Occup=    0.000000
   1      0.000000000000
   2      0.000000000000
   3      0.000000000000
   4      0.000000000000
   5      0.000000000000
   6      0.000000000000
   7      0.000000000000
   8      0.000000000000
   9      0.000000000000
  10      0.000000000000
  11      0.000000000000
  12      0.000000000000
  13      0.000000000000
  14      0.000000000000
  15      0.000000000000
  16      0.000000000000
  17      0.000000000000
  18      0.000000000000
  19      0.000000000000
  20      0.000000000000
  21      0.000000000000
  22      0.000000000000
  23      0.000000000000
  24      0.000000000000
  25      0.000000000000
  26      0.000000000000
  27      0.000000000000
  28      0.000000000000
  29      0.000000000000
  30      0.000000000000
  31      0.000000000000
  32      0.000000000000
  33      0.000000000000
  34      0.000000000000
  35      0.000000000000
  36      0.000000000000
  37      0.000000000000
  38      0.000000000000
  39      0.000000000000
  40      0.000000000000
  41      0.000000000000
  42      0.000000000000
  43      0.000000000000
  44      0.000000000000
  45      0.000000000000
  46      0.000000000000
  47      0.000000000000
  48      0.000000000000
 Ene=   0.71655126808866E+00
 Spin= Alpha
 Occup=    0.000000
   1      0.000000000000
   2      0.000000000000
   3      0.000000000000
   4      0.000000000000
   5      0.000000000000
   6      0.000000000000
   7      0.000000000000
   8      0.000000000000
   9      0.000000000000
  10      0.000000000000
  11      0.000000000000
  12      0.000000000000
  13      0.000000000000
  14      0.000000000000
  15      0.000000000000
  16      0.000000000000
  17      0.000000000000
  18      0.000000000000
  19      0.000000000000
  20      0.000000000000
  21      0.000000000000
  22      0.000000000000
  23      0.000000000000
  24      0.000000000000
  25      0.000000000000
  26      0.000000000000
  27      0.000000000000
  28      0.000000000000
  29      0.000000000000
  30      0.000000000000
  31      0.000000000000
  32      0.000000000000
  33      0.000000000000
  34      0.000000000000
  35      0.000000000000
  36      0.000000000000
  37      0.000000000000
  38      0.000000000000
  39      0.000000000000
  40      0.000000000000
  41      0.000000000000
  42      0.000000000000
  43      0.000000000000
  44      0.000000000000
  45      0.000000000000
  46      0.000000000000
  47      0.000000000000
  48      0.000000000000
 Ene=   0.75466858599208E+00
 Spin= Alpha
 Occup=    0.000000
   1     -0.057785330481
   2      0.440630146315
   3     -3.424968756441
   4     -0.752717239490
   5      0.000000000000
   6      0.000000000000
   7      2.604863851171
   8      0.000000000000
   9     -0.000000000000
  10     -0.096036572713
  11     -0.000000000000
  12     -0.000000000000
  13     -0.084502212035
  14      0.000000000000
  15      0.277211263972
  16     -0.435470060148
  17     -0.010511203151
  18      0.000000000000
  19      0.076472877066
  20      0.277211263972
  21     -0.435470060149
  22     -0.010511203151
  23      0.000000000000
  24     -0.076472877066
  25      0.057785330481
  26     -0.440630146315
  27      3.424968756443
  28     -0.752717239490
  29      0.000000000000
  30      0.000000000000
  31      2.604863851170
  32     -0.000000000000
  33      0.000000000000
  34      0.096036572713
  35      0.000000000000
  36      0.000000000000
  37     -0.084502212035
  38      0.000000000000
  39     -0.277211263972
  40      0.435470060148
  41     -0.010511203151
  42     -0.076472877066
  43      0.000000000000
  44     -0.277211263972
  45      0.435470060147
  46     -0.010511203151
  47      0.076472877065
  48      0.000000000000
 Ene=   0.77219201093342E+00
 Spin= Alpha
 Occup=    0.000000
   1      0.000000000000
   2      0.000000000000
   3      0.000000000000
   4      0.000000000000
   5      0.000000000000
   6      0.000000000000
   7      0.000000000000
   8      0.000000000000
   9      0.000000000000
  10      0.000000000000
  11      0.000000000000
  12      0.000000000000
  13      0.000000000000
  14      0.000000000000
  15      0.000000000000
  16      0.000000000000
  17      0.000000000000
  18      0.000000000000
  19      0.000000000000
  20      0.000000000000
  21      0.000000000000
  22      0.000000000000
  23      0.000000000000
  24      0.000000000000
  25      0.000000000000
  26      0.000000000000
  27      0.000000000000
  28      0.000000000000
  29      0.000000000000
  30      0.000000000000
  31      0.000000000000
  32      0.000000000000
  33      0.000000000000
  34      0.000000000000
  35      0.000000000000
  36      0.000000000000
  37      0.000000000000
  38      0.000000000000
  39      0.000000000000
  40      0.000000000000
  41      0.000000000000
  42      0.000000000000
  43      0.000000000000
  44      0.000000000000
  45      0.000000000000
  46      0.000000000000
  47      0.000000000000
  48      0.000000000000
 Ene=   0.11731762210627E+01
 Spin= Alpha
 Occup=    0.000000
   1     -0.000000000000
   2      0.000000000000
   3     -0.000000000000
   4     -0.000000000000
   5      0.000000000000
   6     -0.000000000000
   7      0.000000000000
   8      0.000000000000
   9      0.000000000000
  10     -0.000000000000
  11     -0.000000000000
  12     -0.000000000000
  13     -0.000000000000
  14     -0.342490869226
  15     -0.000000000000
  16     -0.000000000000
  17     -0.000000000000
  18     -0.348746465403
  19      0.000000000000
  20      0.000000000000
  21      0.000000000000
  22      0.000000000000
  23      0.348746465403
  24      0.000000000000
  25     -0.000000000000
  26      0.000000000000
  27     -0.000000000000
  28     -0.000000000000
  29      0.000000000000
  30      0.000000000000
  31     -0.000000000000
  32     -0.000000000000
  33     -0.000000000000
  34     -0.000000000000
  35      0.000000000000
  36     -0.000000000000
  37      0.000000000000
  38     -0.342490869226
  39      0.000000000000
  40      0.000000000000
  41      0.000000000000
  42     -0.000000000000
  43     -0.348746465403
  44     -0.000000000000
  45     -0.000000000000
  46      0.000000000000
  47     -0.000000000000
  48      0.348746465403
 Ene=   0.12120328736680E+01
 Spin= Alpha
 Occup=    0.000000
   1      0.000000000000
   2      0.000000000000
   3      0.000000000000
   4      0.000000000000
   5      0.000000000000
   6      0.000000000000
   7      0.000000000000
   8      0.000000000000
   9      0.000000000000
  10      0.000000000000
  11      0.000000000000
  12      0.000000000000
  13      0.000000000000
  14      0.000000000000
  15      0.000000000000
  16      0.000000000000
  17      0.000000000000
  18      0.000000000000
  19      0.000000000000
  20      0.000000000000
  21      0.000000000000
  22      0.000000000000
  23      0.000000000000
  24      0.000000000000
  25      0.000000000000
  26      0.000000000000
  27      0.000000000000
  28      0.000000000000
  29      0.000000000000
  30      0.000000000000
  31      0.000000000000
  32      0.000000000000
  33      0.000000000000
  34      0.000000000000
  35      0.000000000000
  36      0.000000000000
  37      0.000000000000
  38      0.000000000000
  39      0.000000000000
  40      0.000000000000
  41      0.000000000000
  42      0.000000000000
  43      0.000000000000
  44      0.000000000000
  45      0.000000000000
  46      0.000000000000
  47      0.000000000000
  48      0.000000000000
 Ene=   0.12185114088910E+01
 Spin= Alpha
 Occup=    0.000000
   1      0.000000000000
   2     -0.000000000000
   3     -0.000000000000
   4      0.000000000000
   5     -0.000000000000
   6      0.000000000000
   7      0.000000000000
   8     -0.000000000000
   9     -0.000000000000
  10      0.000000000000
  11      0.000000000000
  12      0.000000000000
  13      0.000000000000
  14      0.288778800327
  15     -0.000000000000
  16      0.000000000000
  17     -0.000000000000
  18      0.385912335996
  19      0.000000000000
  20      0.000000000000
  21     -0.000000000000
  22      0.000000000000
  23     -0.385912335996
  24      0.000000000000
  25      0.000000000000
  26     -0.000000000000
  27      0.000000000000
  28      0.000000000000
  29     -0.000000000000
  30      0.000000000000
  31      0.000000000000
  32      0.000000000000
  33     -0.000000000000
  34      0.000000000000
  35     -0.000000000000
  36      0.000000000000
  37     -0.000000000000
  38     -0.288778800327
  39     -0.000000000000
  40     -0.000000000000
  41      0.000000000000
  42      0.000000000000
  43     -0.385912335996
  44      0.000000000000
  45      0.000000000000
  46     -0.000000000000
  47      0.000000000000
  48      0.385912335996
 Ene=   0.12530489878656E+01
 Spin= Alpha
 Occup=    0.000000
   1      0.000000000000
   2      0.000000000000
   3      0.000000000000
   4      0.000000000000
   5      0.000000000000
   6      0.000000000000
   7      0.000000000000
   8      0.000000000000
   9      0.000000000000
  10      0.000000000000
  11      0.000000000000
  12      0.000000000000
  13      0.000000000000
  14      0.000000000000
  15      0.000000000000
  16      0.000000000000
  17      0.000000000000
  18      0.000000000000
  19      0.000000000000
  20      0.000000000000
  21      0.000000000000
  22      0.000000000000
  23      0.000000000000
  24      0.000000000000
  25      0.000000000000
  26      0.000000000000
  27      0.000000000000
  28      0.000000000000
  29      0.000000000000
  30      0.000000000000
  31      0.000000000000
  32      0.000000000000
  33      0.000000000000
  34      0.000000000000
  35      0.000000000000
  36      0.000000000000
  37      0.000000000000
  38      0.000000000000
  39      0.000000000000
  40      0.000000000000
  41      0.000000000000
  42      0.000000000000
  43      0.000000000000
  44      0.000000000000
  45      0.000000000000
  46      0.000000000000
  47      0.000000000000
  48      0.000000000000
 Ene=   0.14921816767294E+01
 Spin= Alpha
 Occup=    0.000000
   1      0.000000000000
   2     -0.000000000000
   3      0.000000000000
   4     -0.000000000000
   5      0.009766362303
   6      0.004866621665
   7     -0.000000000000
   8     -0.293596220018
   9     -0.252867758246
  10      0.000000000000
  11      0.301575444341
  12     -0.053905256207
  13      0.000000000000
  14      0.000000000000
  15      0.103605225671
  16      0.028398225723
  17      0.300412663460
  18      0.260642794081
  19     -0.172637628045
  20     -0.103605225671
  21     -0.028398225723
  22     -0.300412663460
  23      0.260642794081
  24     -0.172637628045
  25      0.000000000000
  26     -0.000000000000
  27     -0.000000000000
  28     -0.000000000000
  29     -0.004124328785
  30     -0.011524103157
  31     -0.000000000000
  32      0.214298510516
  33      0.346437396166
  34      0.000000000000
  35     -0.045683230612
  36      0.355852713903
  37      0.000000000000
  38     -0.000000000000
  39     -0.087802595700
  40     -0.024066719759
  41      0.254591517583
  42      0.146305669041
  43     -0.307553043105
  44      0.087802595700
  45      0.024066719759
  46     -0.254591517583
  47      0.146305669041
  48     -0.307553043105
 Ene=   0.14921816767294E+01
 Spin= Alpha
 Occup=    0.000000
   1      0.000000000000
   2     -0.000000000000
   3      0.000000000000
   4     -0.000000000000
   5      0.011524103157
   6     -0.004124328785
   7      0.000000000000
   8     -0.346437396166
   9      0.214298510516
  10     -0.000000000000
  11      0.355852713903
  12      0.045683230612
  13      0.000000000000
  14     -0.000000000000
  15     -0.087802595700
  16     -0.024066719759
  17     -0.254591517583
  18      0.307553043105
  19      0.146305669041
  20      0.087802595700
  21      0.024066719759
  22      0.254591517583
  23      0.307553043105
  24      0.146305669041
  25     -0.000000000000
  26      0.000000000000
  27     -0.000000000000
  28      0.000000000000
  29     -0.004866621665
  30      0.009766362303
  31     -0.000000000000
  32      0.252867758245
  33     -0.293596220018
  34     -0.000000000000
  35     -0.053905256207
  36     -0.301575444341
  37      0.000000000000
  38      0.000000000000
  39     -0.103605225671
  40     -0.028398225723
  41      0.300412663460
  42      0.172637628045
  43      0.260642794081
  44      0.103605225671
  45      0.028398225723
  46     -0.300412663460
  47      0.172637628045
  48      0.260642794081
 Ene=   0.15173295475364E+01
 Spin= Alpha
 Occup=    0.000000
   1      0.000000000000
   2      0.000000000000
   3      0.000000000000
   4      0.000000000000
   5      0.000000000000
   6      0.000000000000
   7      0.000000000000
   8      0.000000000000
   9      0.000000000000
  10      0.000000000000
  11      0.000000000000
  12      0.000000000000
  13      0.000000000000
  14      0.000000000000
  15      0.000000000000
  16      0.000000000000
  17      0.000000000000
  18      0.000000000000
  19      0.000000000000
  20      0.000000000000
  21      0.000000000000
  22      0.000000000000
  23      0.000000000000
  24      0.000000000000
  25      0.000000000000
  26      0.000000000000
  27      0.000000000000
  28      0.000000000000
  29      0.000000000000
  30      0.000000000000
  31      0.000000000000
  32      0.000000000000
  33      0.000000000000
  34      0.000000000000
  35      0.000000000000
  36      0.000000000000
  37      0.000000000000
  38      0.000000000000
  39      0.000000000000
  40      0.000000000000
  41      0.000000000000
  42      0.000000000000
  43      0.000000000000
  44      0.000000000000
  45      0.000000000000
  46      0.000000000000
  47      0.000000000000
  48      0.000000000000
 Ene=   0.15173295475364E+01
 Spin= Alpha
 Occup=    0.000000
   1      0.000000000000
   2      0.000000000000
   3      0.000000000000
   4      0.000000000000
   5      0.000000000000
   6      0.000000000000
   7      0.000000000000
   8      0.000000000000
   9      0.000000000000
  10      0.000000000000
  11      0.000000000000
  12      0.000000000000
  13      0.000000000000
  14      0.000000000000
  15      0.000000000000
  16      0.000000000000
  17      0.000000000000
  18      0.000000000000
  19      0.000000000000
  20      0.000000000000
  21      0.000000000000
  22      0.000000000000
  23      0.000000000000
  24      0.000000000000
  25      0.000000000000
  26      0.000000000000
  27      0.000000000000
  28      0.000000000000
  29      0.000000000000
  30      0.000000000000
  31      0.000000000000
  32      0.000000000000
  33      0.000000000000
  34      0.000000000000
  35      0.000000000000
  36      0.000000000000
  37      0.000000000000
  38      0.000000000000
  39      0.000000000000
  40      0.000000000000
  41      0.000000000000
  42      0.000000000000
  43      0.000000000000
  44      0.000000000000
  45      0.000000000000
  46      0.000000000000
  47      0.000000000000
  48      0.000000000000
 Ene=   0.16179427140160E+01
 Spin= Alpha
 Occup=    0.000000
   1     -0.040944617131
   2      0.281708044388
   3      0.276154608101
   4     -0.248588617235
   5     -0.000000000000
   6      0.000000000000
   7      0.747191557152
   8     -0.000000000000
   9     -0.000000000000
  10     -0.321522566145
  11      0.000000000000
  12     -0.000000000000
  13     -0.059471033783
  14      0.000000000000
  15     -0.178542496526
  16     -0.121291233840
  17     -0.386300211397
  18      0.000000000000
  19      0.129034648118
  20     -0.178542496526
  21     -0.121291233840
  22     -0.386300211397
  23      0.000000000000
  24     -0.129034648118
  25     -0.040944617131
  26      0.281708044388
  27      0.276154608101
  28      0.248588617235
  29     -0.000000000000
  30      0.000000000000
  31     -0.747191557152
  32      0.000000000000
  33      0.000000000000
  34     -0.321522566145
  35     -0.000000000000
  36      0.000000000000
  37      0.059471033783
  38      0.000000000000
  39     -0.178542496526
  40     -0.121291233840
  41      0.386300211397
  42      0.129034648118
  43     -0.000000000000
  44     -0.178542496526
  45     -0.121291233840
  46      0.386300211397
  47     -0.129034648118
  48     -0.000000000000
 Ene=   0.16295093518710E+01
 Spin= Alpha
 Occup=    0.000000
   1      0.000000000000
   2      0.000000000000
   3      0.000000000000
   4      0.000000000000
   5      0.000000000000
   6      0.000000000000
   7      0.000000000000
   8      0.000000000000
   9      0.000000000000
  10      0.000000000000
  11      0.000000000000
  12      0.000000000000
  13      0.000000000000
  14      0.000000000000
  15      0.000000000000
  16      0.000000000000
  17      0.000000000000
  18      0.000000000000
  19      0.000000000000
  20      0.000000000000
  21      0.000000000000
  22      0.000000000000
  23      0.000000000000
  24      0.000000000000
  25      0.000000000000
  26      0.000000000000
  27      0.000000000000
  28      0.000000000000
  29      0.000000000000
  30      0.000000000000
  31      0.000000000000
  32      0.000000000000
  33      0.000000000000
  34      0.000000000000
  35      0.000000000000
  36      0.000000000000
  37      0.000000000000
  38      0.000000000000
  39      0.000000000000
  40      0.000000000000
  41      0.000000000000
  42      0.000000000000
  43      0.000000000000
  44      0.000000000000
  45      0.000000000000
  46      0.000000000000
  47      0.000000000000
  48      0.000000000000
 Ene=   0.16341071190671E+01
 Spin= Alpha
 Occup=    0.000000
   1      0.000000000000
   2     -0.000000000000
   3      0.000000000000
   4     -0.000000000000
   5      0.007891893815
   6     -0.206222631664
   7      0.000000000000
   8      0.142416389423
   9      1.437182372210
  10     -0.000000000000
  11     -0.068092567298
  12      0.210439779668
  13     -0.000000000000
  14      0.000000000000
  15     -0.457704530251
  16     -0.405598322325
  17      0.299431999365
  18     -0.070143141220
  19     -0.470167403508
  20      0.457704530251
  21      0.405598322325
  22     -0.299431999366
  23     -0.070143141220
  24     -0.470167403508
  25     -0.000000000000
  26      0.000000000000
  27      0.000000000000
  28      0.000000000000
  29      0.052295498924
  30     -0.031120978760
  31     -0.000000000000
  32     -0.364451605497
  33     -0.561606318383
  34     -0.000000000000
  35      0.053364915298
  36     -0.268516960615
  37     -0.000000000000
  38     -0.000000000000
  39      0.116068186000
  40      0.102854698622
  41      0.075932237283
  42      0.119228615918
  43      0.276603215826
  44     -0.116068186000
  45     -0.102854698622
  46     -0.075932237283
  47      0.119228615918
  48      0.276603215826
 Ene=   0.16341071190671E+01
 Spin= Alpha
 Occup=    0.000000
   1      0.000000000000
   2     -0.000000000000
   3     -0.000000000000
   4     -0.000000000000
   5      0.031120978760
   6      0.052295498924
   7      0.000000000000
   8      0.561606318383
   9     -0.364451605497
  10     -0.000000000000
  11     -0.268516960615
  12     -0.053364915298
  13     -0.000000000000
  14     -0.000000000000
  15      0.116068186000
  16      0.102854698622
  17     -0.075932237283
  18     -0.276603215826
  19      0.119228615918
  20     -0.116068186000
  21     -0.102854698622
  22      0.075932237283
  23     -0.276603215826
  24      0.119228615918
  25     -0.000000000000
  26      0.000000000000
  27      0.000000000000
  28      0.000000000000
  29      0.206222631664
  30      0.007891893815
  31      0.000000000000
  32     -1.437182372210
  33      0.142416389423
  34     -0.000000000000
  35      0.210439779668
  36      0.068092567298
  37     -0.000000000000
  38      0.000000000000
  39      0.457704530251
  40      0.405598322325
  41      0.299431999365
  42      0.470167403508
  43     -0.070143141220
  44     -0.457704530251
  45     -0.405598322325
  46     -0.299431999365
  47      0.470167403508
  48     -0.070143141220
 Ene=   0.16493753533081E+01
 Spin= Alpha
 Occup=    0.000000
   1      0.000000000000
   2      0.000000000000
   3      0.000000000000
   4      0.000000000000
   5      0.000000000000
   6      0.000000000000
   7      0.000000000000
   8      0.000000000000
   9      0.000000000000
  10      0.000000000000
  11      0.000000000000
  12      0.000000000000
  13      0.000000000000
  14      0.000000000000
  15      0.000000000000
  16      0.000000000000
  17      0.000000000000
  18      0.000000000000
  19      0.000000000000
  20      0.000000000000
  21      0.000000000000
  22      0.000000000000
  23      0.000000000000
  24      0.000000000000
  25      0.000000000000
  26      0.000000000000
  27      0.000000000000
  28      0.000000000000
  29      0.000000000000
  30      0.000000000000
  31      0.000000000000
  32      0.000000000000
  33      0.000000000000
  34      0.000000000000
  35      0.000000000000
  36      0.000000000000
  37      0.000000000000
  38      0.000000000000
  39      0.000000000000
  40      0.000000000000
  41      0.000000000000
  42      0.000000000000
  43      0.000000000000
  44      0.000000000000
  45      0.000000000000
  46      0.000000000000
  47      0.000000000000
  48      0.000000000000
 Ene=   0.16493753533082E+01
 Spin= Alpha
 Occup=    0.000000
   1      0.000000000000
   2      0.000000000000
   3      0.000000000000
   4      0.000000000000
   5      0.000000000000
   6      0.000000000000
   7      0.000000000000
   8      0.000000000000
   9      0.000000000000
  10      0.000000000000
  11      0.000000000000
  12      0.000000000000
  13      0.000000000000
  14      0.000000000000
  15      0.000000000000
  16      0.000000000000
  17      0.000000000000
  18      0.000000000000
  19      0.000000000000
  20      0.000000000000
  21      0.000000000000
  22      0.000000000000
  23      0.000000000000
  24      0.000000000000
  25      0.000000000000
  26      0.000000000000
  27      0.000000000000
  28      0.000000000000
  29      0.000000000000
  30      0.000000000000
  31      0.000000000000
  32      0.000000000000
  33      0.000000000000
  34      0.000000000000
  35      0.000000000000
  36      0.000000000000
  37      0.000000000000
  38      0.000000000000
  39      0.000000000000
  40      0.000000000000
  41      0.000000000000
  42      0.000000000000
  43      0.000000000000
  44      0.000000000000
  45      0.000000000000
  46      0.000000000000
  47      0.000000000000
  48      0.000000000000
 Ene=   0.16540372095469E+01
 Spin= Alpha
 Occup=    0.000000
   1     -0.057153892002
   2      0.413903276449
   3      0.626434650724
   4     -0.033196980134
   5      0.000000000000
   6     -0.000000000000
   7     -1.149972069955
   8      0.000000000000
   9      0.000000000000
  10      0.044648641114
  11     -0.000000000000
  12      0.000000000000
  13      0.396121592266
  14     -0.000000000000
  15      0.227885971982
  16      0.142668359849
  17      0.385931648539
  18     -0.000000000000
  19      0.012363857125
  20      0.227885971982
  21      0.142668359849
  22      0.385931648539
  23     -0.000000000000
  24     -0.012363857125
  25      0.057153892002
  26     -0.413903276449
  27     -0.626434650724
  28     -0.033196980134
  29      0.000000000000
  30     -0.000000000000
  31     -1.149972069955
  32     -0.000000000000
  33     -0.000000000000
  34     -0.044648641114
  35      0.000000000000
  36     -0.000000000000
  37      0.396121592266
  38     -0.000000000000
  39     -0.227885971982
  40     -0.142668359849
  41      0.385931648539
  42     -0.012363857125
  43      0.000000000000
  44     -0.227885971982
  45     -0.142668359849
  46      0.385931648539
  47      0.012363857125
  48      0.000000000000
 Ene=   0.16912038234611E+01
 Spin= Alpha
 Occup=    0.000000
   1      0.000000000000
   2      0.000000000000
   3      0.000000000000
   4      0.000000000000
   5      0.000000000000
   6      0.000000000000
   7      0.000000000000
   8      0.000000000000
   9      0.000000000000
  10      0.000000000000
  11      0.000000000000
  12      0.000000000000
  13      0.000000000000
  14      0.000000000000
  15      0.000000000000
  16      0.000000000000
  17      0.000000000000
  18      0.000000000000
  19      0.000000000000
  20      0.000000000000
  21      0.000000000000
  22      0.000000000000
  23      0.000000000000
  24      0.000000000000
  25      0.000000000000
  26      0.000000000000
  27      0.000000000000
  28      0.000000000000
  29      0.000000000000
  30      0.000000000000
  31      0.000000000000
  32      0.000000000000
  33      0.000000000000
  34      0.000000000000
  35      0.000000000000
  36      0.000000000000
  37      0.000000000000
  38      0.000000000000
  39      0.000000000000
  40      0.000000000000
  41      0.000000000000
  42      0.000000000000
  43      0.000000000000
  44      0.000000000000
  45      0.000000000000
  46      0.000000000000
  47      0.000000000000
  48      0.000000000000
 Ene=   0.18380138695340E+01
 Spin= Alpha
 Occup=    0.000000
   1     -0.000000000000
   2      0.000000000000
   3      0.000000000000
   4      0.000000000000
   5     -0.206464104076
   6     -0.060833908387
   7     -0.000000000000
   8     -0.240781607209
   9     -0.035313298933
  10     -0.000000000000
  11     -0.392939394397
  12      0.103381663186
  13      0.000000000000
  14      0.000000000000
  15     -0.024479425392
  16      0.058592151208
  17     -0.088623581249
  18      0.549232025093
  19     -0.042089108092
  20      0.024479425392
  21     -0.058592151208
  22      0.088623581249
  23      0.549232025093
  24     -0.042089108092
  25     -0.000000000000
  26      0.000000000000
  27     -0.000000000000
  28     -0.000000000000
  29      0.214633154790
  30      0.058518537851
  31      0.000000000000
  32      0.124591777135
  33      0.068245217048
  34     -0.000000000000
  35      0.364749415336
  36     -0.111371605864
  37     -0.000000000000
  38     -0.000000000000
  39      0.086367889860
  40     -0.206723825463
  41     -0.312680203139
  42      0.148498071084
  43     -0.155669941723
  44     -0.086367889860
  45      0.206723825463
  46      0.312680203139
  47      0.148498071084
  48     -0.155669941723
 Ene=   0.18380138695340E+01
 Spin= Alpha
 Occup=    0.000000
   1     -0.000000000000
   2      0.000000000000
   3     -0.000000000000
   4      0.000000000000
   5     -0.058518537851
   6      0.214633154790
   7      0.000000000000
   8     -0.068245217048
   9      0.124591777135
  10     -0.000000000000
  11     -0.111371605864
  12     -0.364749415336
  13      0.000000000000
  14     -0.000000000000
  15      0.086367889860
  16     -0.206723825463
  17      0.312680203139
  18      0.155669941723
  19      0.148498071084
  20     -0.086367889860
  21      0.206723825463
  22     -0.312680203139
  23      0.155669941723
  24      0.148498071084
  25     -0.000000000000
  26      0.000000000000
  27      0.000000000000
  28      0.000000000000
  29      0.060833908387
  30     -0.206464104076
  31      0.000000000000
  32      0.035313298933
  33     -0.240781607209
  34     -0.000000000000