[Molden Format]
[Title]
generated by TRESC, real part2 of MOs of job SCN
 
[Atoms] AU
 S   1  16    0.0000000000    0.0000000000    1.9184736755
 C   2   6    0.0000000000    0.0000000000   -1.1567057569
 N   3   7    0.0000000000    0.0000000000   -3.3890492760
[GTO]
  1 0
 s  5 1.0
    10081.3659290000        0.0067330718
     1468.8676987000        0.0423201277
      327.2465016600        0.1866835343
       90.5285201140        0.4849802687
       27.5058308280        0.4517376429
 s  3 1.0
       46.3853988360       -0.0950589434
        5.0228188449        0.5843701906
        2.0306206045        0.5413909427
 s  1 1.0
        0.3606627882        1.0000000000
 s  1 1.0
        0.1371410729        1.0000000000
 p  5 1.0
      604.8788900300        0.0002353489
      140.0897861900        0.0017386166
       44.4994657800        0.0077865988
       16.4748871580        0.0220140918
        6.5229645048        0.0378945448
 p  5 1.0
      270.9504306400        0.0092081513
       62.5377853170        0.0653131413
       19.3546142200        0.2445470601
        6.7163477485        0.4820783852
        2.4098646724        0.3917477785
 p  1 1.0
        0.6191509478        1.0000000000
 p  1 1.0
        0.1701457548        1.0000000000
 d  1 1.0
        0.5500000000        1.0000000000
 
  2 0
 s  5 1.0
     1231.7975026000        0.0058423196
      185.5974766200        0.0415113222
       42.0875016200        0.1832849990
       11.6300369400        0.4683526005
        3.5840894779        0.4430601820
 s  1 1.0
        0.4029351893        1.0000000000
 s  1 1.0
        0.1309419451        1.0000000000
 p  3 1.0
        9.4821246358        0.0381720490
        2.0121097169        0.2099973699
        0.5481253660        0.5104097902
 p  1 1.0
        0.1527756940        1.0000000000
 d  1 1.0
        0.8000000000        1.0000000000
 
  3 0
 s  5 1.0
     1706.0150550000        0.0058639453
      255.9938356800        0.0413450288
       58.1565771970        0.1820914202
       16.1430707430        0.4678591214
        4.9963209539        0.4434151324
 s  1 1.0
        0.5882550288        1.0000000000
 s  1 1.0
        0.1877013255        1.0000000000
 p  3 1.0
       13.5897862110        0.0400190920
        2.9274822154        0.2175789499
        0.7994670210        0.5117738303
 p  1 1.0
        0.2195247995        1.0000000000
 d  1 1.0
        1.0000000000        1.0000000000
 
[5D]
[7F]
[9G]
[MO]
 Ene=   0.60443323726863E+00
 Spin= Alpha
 Occup=    0.000000
   1      0.000000000000
   2     -0.000000000000
   3      0.000000000000
   4     -0.000000000000
   5      0.000000000000
   6      0.036398503380
   7      0.000000000000
   8     -0.000000000000
   9     -0.263434213853
  10     -0.000000000000
  11      0.000000000000
  12      0.770775578572
  13      0.000000000000
  14     -0.000000000000
  15     -0.648102062595
  16      0.000000000000
  17     -0.000000000000
  18     -0.000000000000
  19     -0.747684820417
  20     -0.000000000000
  21     -0.000000000000
  22     -0.000000000000
  23     -0.000000000000
  24     -0.000000000000
  25     -0.000000000000
  26     -0.116064602219
  27     -0.000000000000
  28     -0.000000000000
  29     -0.054646386993
  30      0.000000000000
  31     -0.000000000000
  32      0.000000000000
  33      0.114095227379
  34     -0.000000000000
  35     -0.000000000000
  36     -0.000000000000
  37      0.000000000000
  38      0.000000000000
  39      0.000000000000
  40      0.211335026136
  41     -0.000000000000
  42     -0.000000000000
  43     -0.062718178391
  44      0.000000000000
  45      0.000000000000
  46     -0.000000000000
  47     -0.014644739340
  48     -0.000000000000
  49     -0.000000000000
 Ene=   0.61100255982698E+00
 Spin= Alpha
 Occup=    0.000000
   1      0.000000000000
   2      0.000000000000
   3      0.000000000000
   4      0.000000000000
   5      0.000000000000
   6      0.000000000000
   7      0.000000000000
   8      0.000000000000
   9      0.000000000000
  10      0.000000000000
  11      0.000000000000
  12      0.000000000000
  13      0.000000000000
  14      0.000000000000
  15      0.000000000000
  16      0.000000000000
  17      0.000000000000
  18      0.000000000000
  19      0.000000000000
  20      0.000000000000
  21      0.000000000000
  22      0.000000000000
  23      0.000000000000
  24      0.000000000000
  25      0.000000000000
  26      0.000000000000
  27      0.000000000000
  28      0.000000000000
  29      0.000000000000
  30      0.000000000000
  31      0.000000000000
  32      0.000000000000
  33      0.000000000000
  34      0.000000000000
  35      0.000000000000
  36      0.000000000000
  37      0.000000000000
  38      0.000000000000
  39      0.000000000000
  40      0.000000000000
  41      0.000000000000
  42      0.000000000000
  43      0.000000000000
  44      0.000000000000
  45      0.000000000000
  46      0.000000000000
  47      0.000000000000
  48      0.000000000000
  49      0.000000000000
 Ene=   0.61727666576026E+00
 Spin= Alpha
 Occup=    0.000000
   1      0.000000000000
   2      0.000000000000
   3      0.000000000000
   4      0.000000000000
   5      0.000000000000
   6      0.000000000000
   7      0.000000000000
   8      0.000000000000
   9      0.000000000000
  10      0.000000000000
  11      0.000000000000
  12      0.000000000000
  13      0.000000000000
  14      0.000000000000
  15      0.000000000000
  16      0.000000000000
  17      0.000000000000
  18      0.000000000000
  19      0.000000000000
  20      0.000000000000
  21      0.000000000000
  22      0.000000000000
  23      0.000000000000
  24      0.000000000000
  25      0.000000000000
  26      0.000000000000
  27      0.000000000000
  28      0.000000000000
  29      0.000000000000
  30      0.000000000000
  31      0.000000000000
  32      0.000000000000
  33      0.000000000000
  34      0.000000000000
  35      0.000000000000
  36      0.000000000000
  37      0.000000000000
  38      0.000000000000
  39      0.000000000000
  40      0.000000000000
  41      0.000000000000
  42      0.000000000000
  43      0.000000000000
  44      0.000000000000
  45      0.000000000000
  46      0.000000000000
  47      0.000000000000
  48      0.000000000000
  49      0.000000000000
 Ene=   0.62948283727048E+00
 Spin= Alpha
 Occup=    0.000000
   1      0.000620812447
   2     -0.004586696645
   3     -0.085270300865
   4      2.032331649889
   5     -0.000000000000
   6      0.000000000000
   7     -0.005776771813
   8      0.000000000000
   9     -0.000000000000
  10      0.039613406267
  11     -0.000000000000
  12      0.000000000000
  13     -0.118385332930
  14      0.000000000000
  15     -0.000000000000
  16     -1.025969222517
  17     -0.009376722047
  18      0.000000000000
  19      0.000000000000
  20     -0.042668667009
  21      0.000000000000
  22     -0.186739693531
  23      1.510672620219
  24     -0.629176383309
  25     -0.000000000000
  26      0.000000000000
  27     -0.232980940607
  28      0.000000000000
  29      0.000000000000
  30     -2.744550195653
  31      0.025094037515
  32     -0.000000000000
  33      0.000000000000
  34     -0.003207060061
  35      0.000000000000
  36      0.203540328998
  37     -0.818922794613
  38     -1.707441756559
  39     -0.000000000000
  40     -0.000000000000
  41      0.341364424581
  42     -0.000000000000
  43      0.000000000000
  44     -1.703835967901
  45      0.033959268025
  46      0.000000000000
  47      0.000000000000
  48     -0.004347792871
  49      0.000000000000
 Ene=   0.63363772751406E+00
 Spin= Alpha
 Occup=    0.000000
   1      0.000000000000
   2      0.000000000000
   3      0.000000000000
   4      0.000000000000
   5      0.000000000000
   6      0.000000000000
   7      0.000000000000
   8      0.000000000000
   9      0.000000000000
  10      0.000000000000
  11      0.000000000000
  12      0.000000000000
  13      0.000000000000
  14      0.000000000000
  15      0.000000000000
  16      0.000000000000
  17      0.000000000000
  18      0.000000000000
  19      0.000000000000
  20      0.000000000000
  21      0.000000000000
  22      0.000000000000
  23      0.000000000000
  24      0.000000000000
  25      0.000000000000
  26      0.000000000000
  27      0.000000000000
  28      0.000000000000
  29      0.000000000000
  30      0.000000000000
  31      0.000000000000
  32      0.000000000000
  33      0.000000000000
  34      0.000000000000
  35      0.000000000000
  36      0.000000000000
  37      0.000000000000
  38      0.000000000000
  39      0.000000000000
  40      0.000000000000
  41      0.000000000000
  42      0.000000000000
  43      0.000000000000
  44      0.000000000000
  45      0.000000000000
  46      0.000000000000
  47      0.000000000000
  48      0.000000000000
  49      0.000000000000
 Ene=   0.63544926403796E+00
 Spin= Alpha
 Occup=    0.000000
   1      0.000000000000
   2      0.000000000000
   3      0.000000000000
   4      0.000000000000
   5      0.000000000000
   6      0.000000000000
   7      0.000000000000
   8      0.000000000000
   9      0.000000000000
  10      0.000000000000
  11      0.000000000000
  12      0.000000000000
  13      0.000000000000
  14      0.000000000000
  15      0.000000000000
  16      0.000000000000
  17      0.000000000000
  18      0.000000000000
  19      0.000000000000
  20      0.000000000000
  21      0.000000000000
  22      0.000000000000
  23      0.000000000000
  24      0.000000000000
  25      0.000000000000
  26      0.000000000000
  27      0.000000000000
  28      0.000000000000
  29      0.000000000000
  30      0.000000000000
  31      0.000000000000
  32      0.000000000000
  33      0.000000000000
  34      0.000000000000
  35      0.000000000000
  36      0.000000000000
  37      0.000000000000
  38      0.000000000000
  39      0.000000000000
  40      0.000000000000
  41      0.000000000000
  42      0.000000000000
  43      0.000000000000
  44      0.000000000000
  45      0.000000000000
  46      0.000000000000
  47      0.000000000000
  48      0.000000000000
  49      0.000000000000
 Ene=   0.63683422165305E+00
 Spin= Alpha
 Occup=    0.000000
   1      0.000000000000
   2      0.000000000000
   3      0.000000000000
   4      0.000000000000
   5      0.000000000000
   6      0.000000000000
   7      0.000000000000
   8      0.000000000000
   9      0.000000000000
  10      0.000000000000
  11      0.000000000000
  12      0.000000000000
  13      0.000000000000
  14      0.000000000000
  15      0.000000000000
  16      0.000000000000
  17      0.000000000000
  18      0.000000000000
  19      0.000000000000
  20      0.000000000000
  21      0.000000000000
  22      0.000000000000
  23      0.000000000000
  24      0.000000000000
  25      0.000000000000
  26      0.000000000000
  27      0.000000000000
  28      0.000000000000
  29      0.000000000000
  30      0.000000000000
  31      0.000000000000
  32      0.000000000000
  33      0.000000000000
  34      0.000000000000
  35      0.000000000000
  36      0.000000000000
  37      0.000000000000
  38      0.000000000000
  39      0.000000000000
  40      0.000000000000
  41      0.000000000000
  42      0.000000000000
  43      0.000000000000
  44      0.000000000000
  45      0.000000000000
  46      0.000000000000
  47      0.000000000000
  48      0.000000000000
  49      0.000000000000
 Ene=   0.70075425953331E+00
 Spin= Alpha
 Occup=    0.000000
   1     -0.000000000000
   2      0.000000000000
   3     -0.000000000000
   4      0.000000000000
   5      0.036164217985
   6     -0.000000000000
   7     -0.000000000000
   8     -0.298972116750
   9      0.000000000000
  10     -0.000000000000
  11      0.920368034250
  12     -0.000000000000
  13      0.000000000000
  14     -0.917480836637
  15      0.000000000000
  16     -0.000000000000
  17      0.000000000000
  18      0.457977170934
  19     -0.000000000000
  20     -0.000000000000
  21      0.000000000000
  22      0.000000000000
  23      0.000000000000
  24     -0.000000000000
  25     -0.005127444812
  26      0.000000000000
  27      0.000000000000
  28      0.251156130314
  29     -0.000000000000
  30     -0.000000000000
  31      0.000000000000
  32      0.007236699231
  33     -0.000000000000
  34     -0.000000000000
  35      0.000000000000
  36     -0.000000000000
  37      0.000000000000
  38     -0.000000000000
  39     -0.562488422468
  40      0.000000000000
  41      0.000000000000
  42      0.513027276692
  43     -0.000000000000
  44      0.000000000000
  45     -0.000000000000
  46      0.002094515130
  47     -0.000000000000
  48      0.000000000000
  49     -0.000000000000
 Ene=   0.71851400474490E+00
 Spin= Alpha
 Occup=    0.000000
   1     -0.004049766766
   2      0.030042691124
   3     -0.426274462279
   4      4.873834684852
   5     -0.000000000000
   6      0.000000000000
   7      0.012457518807
   8      0.000000000000
   9     -0.000000000000
  10     -0.183936200188
  11     -0.000000000000
  12      0.000000000000
  13      0.588203670669
  14      0.000000000000
  15     -0.000000000000
  16     -3.157894380513
  17     -0.042726078518
  18     -0.000000000000
  19      0.000000000000
  20     -0.034701667103
  21      0.000000000000
  22     -0.173788473302
  23      1.137526695263
  24     -2.904389169660
  25     -0.000000000000
  26     -0.000000000000
  27      0.620345698490
  28     -0.000000000000
  29      0.000000000000
  30     -5.501086184276
  31     -0.081002259156
  32     -0.000000000000
  33      0.000000000000
  34     -0.002443878590
  35      0.000000000000
  36     -0.009248477160
  37      0.070841034929
  38     -2.971838121985
  39      0.000000000000
  40     -0.000000000000
  41     -0.262498511418
  42     -0.000000000000
  43      0.000000000000
  44     -0.120832390495
  45     -0.031500625438
  46     -0.000000000000
  47     -0.000000000000
  48      0.001095623058
  49     -0.000000000000
 Ene=   0.72128216399794E+00
 Spin= Alpha
 Occup=    0.000000
   1      0.000000000000
   2      0.000000000000
   3      0.000000000000
   4      0.000000000000
   5      0.000000000000
   6      0.000000000000
   7      0.000000000000
   8      0.000000000000
   9      0.000000000000
  10      0.000000000000
  11      0.000000000000
  12      0.000000000000
  13      0.000000000000
  14      0.000000000000
  15      0.000000000000
  16      0.000000000000
  17      0.000000000000
  18      0.000000000000
  19      0.000000000000
  20      0.000000000000
  21      0.000000000000
  22      0.000000000000
  23      0.000000000000
  24      0.000000000000
  25      0.000000000000
  26      0.000000000000
  27      0.000000000000
  28      0.000000000000
  29      0.000000000000
  30      0.000000000000
  31      0.000000000000
  32      0.000000000000
  33      0.000000000000
  34      0.000000000000
  35      0.000000000000
  36      0.000000000000
  37      0.000000000000
  38      0.000000000000
  39      0.000000000000
  40      0.000000000000
  41      0.000000000000
  42      0.000000000000
  43      0.000000000000
  44      0.000000000000
  45      0.000000000000
  46      0.000000000000
  47      0.000000000000
  48      0.000000000000
  49      0.000000000000
 Ene=   0.72460972212593E+00
 Spin= Alpha
 Occup=    0.000000
   1      0.000000000000
   2     -0.000000000000
   3      0.000000000000
   4     -0.000000000000
   5      0.000000000000
   6      0.034232942595
   7     -0.000000000000
   8     -0.000000000000
   9     -0.296492630188
  10      0.000000000000
  11      0.000000000000
  12      0.914321473948
  13     -0.000000000000
  14     -0.000000000000
  15     -0.887577500672
  16      0.000000000000
  17      0.000000000000
  18      0.000000000000
  19      0.441761794882
  20      0.000000000000
  21      0.000000000000
  22      0.000000000000
  23     -0.000000000000
  24      0.000000000000
  25      0.000000000000
  26      0.013890708518
  27     -0.000000000000
  28      0.000000000000
  29      0.193239829467
  30      0.000000000001
  31      0.000000000000
  32      0.000000000000
  33      0.011316662623
  34      0.000000000000
  35      0.000000000000
  36     -0.000000000000
  37     -0.000000000000
  38      0.000000000000
  39     -0.000000000000
  40     -0.585681240334
  41      0.000000000000
  42      0.000000000000
  43      0.556739264981
  44      0.000000000000
  45      0.000000000000
  46     -0.000000000000
  47      0.001462313904
  48      0.000000000000
  49      0.000000000000
 Ene=   0.73079647238556E+00
 Spin= Alpha
 Occup=    0.000000
   1      0.000000000000
   2      0.000000000000
   3      0.000000000000
   4      0.000000000000
   5      0.000000000000
   6      0.000000000000
   7      0.000000000000
   8      0.000000000000
   9      0.000000000000
  10      0.000000000000
  11      0.000000000000
  12      0.000000000000
  13      0.000000000000
  14      0.000000000000
  15      0.000000000000
  16      0.000000000000
  17      0.000000000000
  18      0.000000000000
  19      0.000000000000
  20      0.000000000000
  21      0.000000000000
  22      0.000000000000
  23      0.000000000000
  24      0.000000000000
  25      0.000000000000
  26      0.000000000000
  27      0.000000000000
  28      0.000000000000
  29      0.000000000000
  30      0.000000000000
  31      0.000000000000
  32      0.000000000000
  33      0.000000000000
  34      0.000000000000
  35      0.000000000000
  36      0.000000000000
  37      0.000000000000
  38      0.000000000000
  39      0.000000000000
  40      0.000000000000
  41      0.000000000000
  42      0.000000000000
  43      0.000000000000
  44      0.000000000000
  45      0.000000000000
  46      0.000000000000
  47      0.000000000000
  48      0.000000000000
  49      0.000000000000
 Ene=   0.73726065150091E+00
 Spin= Alpha
 Occup=    0.000000
   1      0.000000000000
   2      0.000000000000
   3      0.000000000000
   4      0.000000000000
   5      0.000000000000
   6      0.000000000000
   7      0.000000000000
   8      0.000000000000
   9      0.000000000000
  10      0.000000000000
  11      0.000000000000
  12      0.000000000000
  13      0.000000000000
  14      0.000000000000
  15      0.000000000000
  16      0.000000000000
  17      0.000000000000
  18      0.000000000000
  19      0.000000000000
  20      0.000000000000
  21      0.000000000000
  22      0.000000000000
  23      0.000000000000
  24      0.000000000000
  25      0.000000000000
  26      0.000000000000
  27      0.000000000000
  28      0.000000000000
  29      0.000000000000
  30      0.000000000000
  31      0.000000000000
  32      0.000000000000
  33      0.000000000000
  34      0.000000000000
  35      0.000000000000
  36      0.000000000000
  37      0.000000000000
  38      0.000000000000
  39      0.000000000000
  40      0.000000000000
  41      0.000000000000
  42      0.000000000000
  43      0.000000000000
  44      0.000000000000
  45      0.000000000000
  46      0.000000000000
  47      0.000000000000
  48      0.000000000000
  49      0.000000000000
 Ene=   0.84594541136636E+00
 Spin= Alpha
 Occup=    0.000000
   1      0.000000000000
   2     -0.000000000000
   3      0.000000000000
   4     -0.000000000000
   5      0.018330301982
   6     -0.000000000000
   7     -0.000000000000
   8     -0.145939634170
   9      0.000000000000
  10      0.000000000000
  11      0.477612470377
  12     -0.000000000000
  13     -0.000000000000
  14     -0.763197607339
  15      0.000000000000
  16      0.000000000000
  17     -0.000000000000
  18      0.431055308583
  19     -0.000000000000
  20     -0.000000000000
  21      0.000000000000
  22      0.000000000000
  23     -0.000000000000
  24     -0.000000000000
  25     -0.233403089464
  26      0.000000000000
  27      0.000000000000
  28      1.166190683474
  29     -0.000000000000
  30      0.000000000000
  31     -0.000000000000
  32     -0.146082827272
  33      0.000000000000
  34     -0.000000000000
  35      0.000000000000
  36      0.000000000000
  37     -0.000000000000
  38      0.000000000000
  39      0.743554191527
  40     -0.000000000000
  41     -0.000000000000
  42     -1.372036985030
  43      0.000000000000
  44      0.000000000000
  45      0.000000000000
  46      0.051505879044
  47     -0.000000000000
  48     -0.000000000000
  49      0.000000000000
 Ene=   0.86206414363875E+00
 Spin= Alpha
 Occup=    0.000000
   1     -0.000000000000
   2      0.000000000000
   3     -0.000000000000
   4      0.000000000000
   5      0.000000000000
   6      0.018756540512
   7      0.000000000000
   8     -0.000000000000
   9     -0.156456036576
  10     -0.000000000000
  11      0.000000000000
  12      0.511250439675
  13      0.000000000000
  14     -0.000000000000
  15     -0.787306058237
  16     -0.000000000000
  17      0.000000000000
  18      0.000000000000
  19      0.445669999511
  20      0.000000000000
  21      0.000000000000
  22      0.000000000000
  23      0.000000000000
  24      0.000000000000
  25     -0.000000000000
  26     -0.223704143974
  27      0.000000000000
  28      0.000000000000
  29      1.156464319272
  30     -0.000000000000
  31      0.000000000000
  32     -0.000000000000
  33     -0.150041311250
  34      0.000000000000
  35      0.000000000000
  36     -0.000000000000
  37      0.000000000000
  38     -0.000000000000
  39      0.000000000000
  40      0.729417651136
  41      0.000000000000
  42     -0.000000000000
  43     -1.350495549448
  44     -0.000000000000
  45     -0.000000000000
  46      0.000000000000
  47      0.052210014387
  48     -0.000000000000
  49     -0.000000000000
 Ene=   0.86659413360157E+00
 Spin= Alpha
 Occup=    0.000000
   1      0.000000000000
   2      0.000000000000
   3      0.000000000000
   4      0.000000000000
   5      0.000000000000
   6      0.000000000000
   7      0.000000000000
   8      0.000000000000
   9      0.000000000000
  10      0.000000000000
  11      0.000000000000
  12      0.000000000000
  13      0.000000000000
  14      0.000000000000
  15      0.000000000000
  16      0.000000000000
  17      0.000000000000
  18      0.000000000000
  19      0.000000000000
  20      0.000000000000
  21      0.000000000000
  22      0.000000000000
  23      0.000000000000
  24      0.000000000000
  25      0.000000000000
  26      0.000000000000
  27      0.000000000000
  28      0.000000000000
  29      0.000000000000
  30      0.000000000000
  31      0.000000000000
  32      0.000000000000
  33      0.000000000000
  34      0.000000000000
  35      0.000000000000
  36      0.000000000000
  37      0.000000000000
  38      0.000000000000
  39      0.000000000000
  40      0.000000000000
  41      0.000000000000
  42      0.000000000000
  43      0.000000000000
  44      0.000000000000
  45      0.000000000000
  46      0.000000000000
  47      0.000000000000
  48      0.000000000000
  49      0.000000000000
 Ene=   0.87143431485291E+00
 Spin= Alpha
 Occup=    0.000000
   1      0.000000000000
   2      0.000000000000
   3      0.000000000000
   4      0.000000000000
   5      0.000000000000
   6      0.000000000000
   7      0.000000000000
   8      0.000000000000
   9      0.000000000000
  10      0.000000000000
  11      0.000000000000
  12      0.000000000000
  13      0.000000000000
  14      0.000000000000
  15      0.000000000000
  16      0.000000000000
  17      0.000000000000
  18      0.000000000000
  19      0.000000000000
  20      0.000000000000
  21      0.000000000000
  22      0.000000000000
  23      0.000000000000
  24      0.000000000000
  25      0.000000000000
  26      0.000000000000
  27      0.000000000000
  28      0.000000000000
  29      0.000000000000
  30      0.000000000000
  31      0.000000000000
  32      0.000000000000
  33      0.000000000000
  34      0.000000000000
  35      0.000000000000
  36      0.000000000000
  37      0.000000000000
  38      0.000000000000
  39      0.000000000000
  40      0.000000000000
  41      0.000000000000
  42      0.000000000000
  43      0.000000000000
  44      0.000000000000
  45      0.000000000000
  46      0.000000000000
  47      0.000000000000
  48      0.000000000000
  49      0.000000000000
 Ene=   0.89550551951175E+00
 Spin= Alpha
 Occup=    0.000000
   1     -0.017560627656
   2      0.133487003025
   3     -0.690949566949
   4      1.186945021905
   5     -0.000000000000
   6     -0.000000000000
   7      0.036287434946
   8      0.000000000000
   9      0.000000000000
  10     -0.300480270176
  11     -0.000000000000
  12     -0.000000000000
  13      0.986246133297
  14      0.000000000000
  15      0.000000000000
  16     -1.349994026004
  17      0.364381886727
  18      0.000000000000
  19     -0.000000000000
  20      0.016639618827
  21     -0.000000000000
  22      0.104797157455
  23     -0.458509855394
  24     -0.681749234291
  25     -0.000000000000
  26      0.000000000000
  27      0.320824090109
  28      0.000000000000
  29     -0.000000000000
  30     -0.271994642730
  31      0.059949673230
  32     -0.000000000000
  33      0.000000000000
  34      0.001385253334
  35     -0.000000000000
  36     -0.065969833629
  37      0.268400811045
  38      0.046064401692
  39      0.000000000000
  40     -0.000000000000
  41      0.695512585264
  42     -0.000000000000
  43      0.000000000000
  44     -0.390986531706
  45     -0.049128118934
  46      0.000000000000
  47     -0.000000000000
  48      0.002293983782
  49     -0.000000000000
 Ene=   0.90323147789707E+00
 Spin= Alpha
 Occup=    0.000000
   1      0.000000000000
   2      0.000000000000
   3      0.000000000000
   4      0.000000000000
   5      0.000000000000
   6      0.000000000000
   7      0.000000000000
   8      0.000000000000
   9      0.000000000000
  10      0.000000000000
  11      0.000000000000
  12      0.000000000000
  13      0.000000000000
  14      0.000000000000
  15      0.000000000000
  16      0.000000000000
  17      0.000000000000
  18      0.000000000000
  19      0.000000000000
  20      0.000000000000
  21      0.000000000000
  22      0.000000000000
  23      0.000000000000
  24      0.000000000000
  25      0.000000000000
  26      0.000000000000
  27      0.000000000000
  28      0.000000000000
  29      0.000000000000
  30      0.000000000000
  31      0.000000000000
  32      0.000000000000
  33      0.000000000000
  34      0.000000000000
  35      0.000000000000
  36      0.000000000000
  37      0.000000000000
  38      0.000000000000
  39      0.000000000000
  40      0.000000000000
  41      0.000000000000
  42      0.000000000000
  43      0.000000000000
  44      0.000000000000
  45      0.000000000000
  46      0.000000000000
  47      0.000000000000
  48      0.000000000000
  49      0.000000000000
 Ene=   0.10399480754484E+01
 Spin= Alpha
 Occup=    0.000000
   1      0.013121614069
   2     -0.099430359304
   3      0.283132524865
   4      4.439550014135
   5     -0.000000000000
   6     -0.000000000000
   7      0.000117419145
   8     -0.000000000000
   9      0.000000000000
  10      0.013292242329
  11      0.000000000000
  12      0.000000000000
  13     -0.063047685884
  14     -0.000000000000
  15      0.000000000000
  16     -2.678948411550
  17      0.553624209506
  18      0.000000000000
  19     -0.000000000000
  20      0.010868349720
  21     -0.000000000000
  22     -0.108614369035
  23      1.660642694146
  24      2.858018158200
  25     -0.000000000000
  26      0.000000000000
  27     -0.371740328484
  28      0.000000000000
  29     -0.000000000000
  30     -8.656958997551
  31      0.168224888195
  32     -0.000000000000
  33      0.000000000000
  34     -0.000786482532
  35      0.000000000000
  36     -0.188242972113
  37      1.800350977927
  38    -10.792637518939
  39      0.000000000000
  40     -0.000000000000
  41     -0.095024230683
  42     -0.000000000000
  43      0.000000000000
  44     -3.535641382880
  45      0.055823545987
  46      0.000000000000
  47     -0.000000000000
  48     -0.002551580240
  49      0.000000000000
 Ene=   0.10473713701016E+01
 Spin= Alpha
 Occup=    0.000000
   1      0.000000000000
   2      0.000000000000
   3      0.000000000000
   4      0.000000000000
   5      0.000000000000
   6      0.000000000000
   7      0.000000000000
   8      0.000000000000
   9      0.000000000000
  10      0.000000000000
  11      0.000000000000
  12      0.000000000000
  13      0.000000000000
  14      0.000000000000
  15      0.000000000000
  16      0.000000000000
  17      0.000000000000
  18      0.000000000000
  19      0.000000000000
  20      0.000000000000
  21      0.000000000000
  22      0.000000000000
  23      0.000000000000
  24      0.000000000000
  25      0.000000000000
  26      0.000000000000
  27      0.000000000000
  28      0.000000000000
  29      0.000000000000
  30      0.000000000000
  31      0.000000000000
  32      0.000000000000
  33      0.000000000000
  34      0.000000000000
  35      0.000000000000
  36      0.000000000000
  37      0.000000000000
  38      0.000000000000
  39      0.000000000000
  40      0.000000000000
  41      0.000000000000
  42      0.000000000000
  43      0.000000000000
  44      0.000000000000
  45      0.000000000000
  46      0.000000000000
  47      0.000000000000
  48      0.000000000000
  49      0.000000000000
 Ene=   0.12335268173950E+01
 Spin= Alpha
 Occup=    0.000000
   1      0.000560793019
   2     -0.015504109530
   3      0.677248781593
   4     -2.403120286525
   5     -0.000000000000
   6     -0.000000000000
   7     -0.039208719441
   8      0.000000000000
   9     -0.000000000000
  10      0.037117787643
  11     -0.000000000000
  12      0.000000000000
  13     -0.171443063762
  14      0.000000000000
  15     -0.000000000000
  16      1.768089341035
  17     -1.035780838778
  18      0.000000000000