[Molden Format]
[Title]
generated by TRESC, real part1 of MOs of job SCN
 
[Atoms] AU
 S   1  16    0.0000000000    0.0000000000    1.9184736755
 C   2   6    0.0000000000    0.0000000000   -1.1567057569
 N   3   7    0.0000000000    0.0000000000   -3.3890492760
[GTO]
  1 0
 s  5 1.0
    10081.3659290000        0.0067330718
     1468.8676987000        0.0423201277
      327.2465016600        0.1866835343
       90.5285201140        0.4849802687
       27.5058308280        0.4517376429
 s  3 1.0
       46.3853988360       -0.0950589434
        5.0228188449        0.5843701906
        2.0306206045        0.5413909427
 s  1 1.0
        0.3606627882        1.0000000000
 s  1 1.0
        0.1371410729        1.0000000000
 p  5 1.0
      604.8788900300        0.0002353489
      140.0897861900        0.0017386166
       44.4994657800        0.0077865988
       16.4748871580        0.0220140918
        6.5229645048        0.0378945448
 p  5 1.0
      270.9504306400        0.0092081513
       62.5377853170        0.0653131413
       19.3546142200        0.2445470601
        6.7163477485        0.4820783852
        2.4098646724        0.3917477785
 p  1 1.0
        0.6191509478        1.0000000000
 p  1 1.0
        0.1701457548        1.0000000000
 d  1 1.0
        0.5500000000        1.0000000000
 
  2 0
 s  5 1.0
     1231.7975026000        0.0058423196
      185.5974766200        0.0415113222
       42.0875016200        0.1832849990
       11.6300369400        0.4683526005
        3.5840894779        0.4430601820
 s  1 1.0
        0.4029351893        1.0000000000
 s  1 1.0
        0.1309419451        1.0000000000
 p  3 1.0
        9.4821246358        0.0381720490
        2.0121097169        0.2099973699
        0.5481253660        0.5104097902
 p  1 1.0
        0.1527756940        1.0000000000
 d  1 1.0
        0.8000000000        1.0000000000
 
  3 0
 s  5 1.0
     1706.0150550000        0.0058639453
      255.9938356800        0.0413450288
       58.1565771970        0.1820914202
       16.1430707430        0.4678591214
        4.9963209539        0.4434151324
 s  1 1.0
        0.5882550288        1.0000000000
 s  1 1.0
        0.1877013255        1.0000000000
 p  3 1.0
       13.5897862110        0.0400190920
        2.9274822154        0.2175789499
        0.7994670210        0.5117738303
 p  1 1.0
        0.2195247995        1.0000000000
 d  1 1.0
        1.0000000000        1.0000000000
 
[5D]
[7F]
[9G]
[MO]
 Ene=  -0.88748599914647E+02
 Spin= Alpha
 Occup=    1.000000
   1      0.993119489810
   2      0.025845802780
   3     -0.011751767913
   4      0.003766423372
   5     -0.000000000000
   6     -0.000000000000
   7      0.000787315233
   8      0.000000000000
   9      0.000000000000
  10     -0.001066898637
  11      0.000000000000
  12      0.000000000000
  13      0.001045513731
  14      0.000000000000
  15      0.000000000000
  16      0.000756479128
  17     -0.000542513172
  18     -0.000000000000
  19      0.000000000000
  20     -0.000000438595
  21      0.000000000000
  22     -0.000153025421
  23     -0.000282037684
  24     -0.004405015951
  25      0.000000000000
  26     -0.000000000000
  27      0.000445307817
  28     -0.000000000000
  29     -0.000000000000
  30      0.006166040598
  31      0.001220729728
  32      0.000000000000
  33      0.000000000000
  34      0.000000013028
  35      0.000000000000
  36      0.000141481949
  37     -0.001648948876
  38      0.008309396335
  39     -0.000000000000
  40     -0.000000000000
  41     -0.000542445386
  42     -0.000000000000
  43      0.000000000000
  44      0.002735094516
  45     -0.000130927505
  46     -0.000000000000
  47     -0.000000000000
  48      0.000000004048
  49     -0.000000000000
 Ene=  -0.88743743064265E+02
 Spin= Alpha
 Occup=   -0.000000
   1      0.000000000000
   2      0.000000000000
   3      0.000000000000
   4      0.000000000000
   5      0.000000000000
   6      0.000000000000
   7      0.000000000000
   8      0.000000000000
   9      0.000000000000
  10      0.000000000000
  11      0.000000000000
  12      0.000000000000
  13      0.000000000000
  14      0.000000000000
  15      0.000000000000
  16      0.000000000000
  17      0.000000000000
  18      0.000000000000
  19      0.000000000000
  20      0.000000000000
  21      0.000000000000
  22      0.000000000000
  23      0.000000000000
  24      0.000000000000
  25      0.000000000000
  26      0.000000000000
  27      0.000000000000
  28      0.000000000000
  29      0.000000000000
  30      0.000000000000
  31      0.000000000000
  32      0.000000000000
  33      0.000000000000
  34      0.000000000000
  35      0.000000000000
  36      0.000000000000
  37      0.000000000000
  38      0.000000000000
  39      0.000000000000
  40      0.000000000000
  41      0.000000000000
  42      0.000000000000
  43      0.000000000000
  44      0.000000000000
  45      0.000000000000
  46      0.000000000000
  47      0.000000000000
  48      0.000000000000
  49      0.000000000000
 Ene=  -0.14374452575237E+02
 Spin= Alpha
 Occup=    1.000000
   1      0.000056002565
   2     -0.000480855653
   3      0.002243501640
   4      0.012476127431
   5      0.000000000000
   6      0.000000000000
   7     -0.000867235607
   8     -0.000000000000
   9     -0.000000000000
  10      0.001089364699
  11      0.000000000000
  12      0.000000000000
  13     -0.001250874627
  14     -0.000000000000
  15     -0.000000000000
  16     -0.007125236692
  17      0.001073948403
  18     -0.000000000000
  19     -0.000000000000
  20      0.000000075835
  21     -0.000000000000
  22      0.000346866132
  23      0.002071580863
  24      0.020860596047
  25      0.000000000000
  26     -0.000000000000
  27      0.003587828942
  28     -0.000000000000
  29      0.000000000000
  30     -0.032771157090
  31     -0.003052731559
  32     -0.000000000000
  33     -0.000000000000
  34     -0.000006789462
  35     -0.000000000000
  36      0.988327743559
  37      0.046850787376
  38     -0.057828940220
  39      0.000000000000
  40      0.000000000000
  41      0.005235499972
  42      0.000000000000
  43     -0.000000000000
  44     -0.015855174472
  45      0.001273974008
  46     -0.000000000000
  47      0.000000000000
  48      0.000107724053
  49     -0.000000000000
 Ene=  -0.14366555821895E+02
 Spin= Alpha
 Occup=    0.000000
   1      0.000000000000
   2      0.000000000000
   3      0.000000000000
   4      0.000000000000
   5      0.000000000000
   6      0.000000000000
   7      0.000000000000
   8      0.000000000000
   9      0.000000000000
  10      0.000000000000
  11      0.000000000000
  12      0.000000000000
  13      0.000000000000
  14      0.000000000000
  15      0.000000000000
  16      0.000000000000
  17      0.000000000000
  18      0.000000000000
  19      0.000000000000
  20      0.000000000000
  21      0.000000000000
  22      0.000000000000
  23      0.000000000000
  24      0.000000000000
  25      0.000000000000
  26      0.000000000000
  27      0.000000000000
  28      0.000000000000
  29      0.000000000000
  30      0.000000000000
  31      0.000000000000
  32      0.000000000000
  33      0.000000000000
  34      0.000000000000
  35      0.000000000000
  36      0.000000000000
  37      0.000000000000
  38      0.000000000000
  39      0.000000000000
  40      0.000000000000
  41      0.000000000000
  42      0.000000000000
  43      0.000000000000
  44      0.000000000000
  45      0.000000000000
  46      0.000000000000
  47      0.000000000000
  48      0.000000000000
  49      0.000000000000
 Ene=  -0.10277990684848E+02
 Spin= Alpha
 Occup=   -0.000000
   1      0.000000000000
   2      0.000000000000
   3      0.000000000000
   4      0.000000000000
   5      0.000000000000
   6      0.000000000000
   7      0.000000000000
   8      0.000000000000
   9      0.000000000000
  10      0.000000000000
  11      0.000000000000
  12      0.000000000000
  13      0.000000000000
  14      0.000000000000
  15      0.000000000000
  16      0.000000000000
  17      0.000000000000
  18      0.000000000000
  19      0.000000000000
  20      0.000000000000
  21      0.000000000000
  22      0.000000000000
  23      0.000000000000
  24      0.000000000000
  25      0.000000000000
  26      0.000000000000
  27      0.000000000000
  28      0.000000000000
  29      0.000000000000
  30      0.000000000000
  31      0.000000000000
  32      0.000000000000
  33      0.000000000000
  34      0.000000000000
  35      0.000000000000
  36      0.000000000000
  37      0.000000000000
  38      0.000000000000
  39      0.000000000000
  40      0.000000000000
  41      0.000000000000
  42      0.000000000000
  43      0.000000000000
  44      0.000000000000
  45      0.000000000000
  46      0.000000000000
  47      0.000000000000
  48      0.000000000000
  49      0.000000000000
 Ene=  -0.10275584054044E+02
 Spin= Alpha
 Occup=    1.000000
   1     -0.000088205178
   2      0.000729552239
   3     -0.001737233672
   4      0.024035673334
   5      0.000000000000
   6     -0.000000000000
   7      0.002422568329
   8     -0.000000000000
   9      0.000000000000
  10     -0.003066856016
  11      0.000000000000
  12      0.000000000000
  13      0.002849627192
  14     -0.000000000000
  15     -0.000000000000
  16     -0.012025931590
  17     -0.002337846651
  18     -0.000000000000
  19      0.000000000000
  20      0.000000631688
  21      0.000000000000
  22      0.988045789218
  23      0.050881758851
  24     -0.003833124843
  25      0.000000000000
  26     -0.000000000000
  27     -0.001535400115
  28     -0.000000000000
  29      0.000000000000
  30     -0.040623419199
  31      0.004581848319
  32      0.000000000000
  33      0.000000000000
  34     -0.000008385374
  35      0.000000000000
  36     -0.000494565860
  37      0.000755798082
  38     -0.043955068464
  39     -0.000000000000
  40      0.000000000000
  41     -0.002365978133
  42      0.000000000000
  43     -0.000000000000
  44     -0.018242315232
  45     -0.001542245731
  46      0.000000000000
  47     -0.000000000000
  48      0.000002316139
  49     -0.000000000000
 Ene=  -0.79820776526913E+01
 Spin= Alpha
 Occup=    1.000000
   1      0.309927653885
   2     -1.016941268393
   3     -0.059506182158
   4      0.015349418524
   5      0.000000000000
   6      0.000000000000
   7      0.000449373769
   8      0.000000000000
   9     -0.000000000000
  10      0.007500140994
  11      0.000000000000
  12      0.000000000000
  13      0.002974220301
  14     -0.000000000000
  15     -0.000000000000
  16      0.002669113611
  17     -0.001645055702
  18      0.000000000000
  19      0.000000000000
  20     -0.000463661851
  21      0.000000000000
  22     -0.000204313406
  23     -0.000940966793
  24     -0.013372548664
  25     -0.000000000000
  26     -0.000000000000
  27      0.001713754208
  28     -0.000000000000
  29      0.000000000000
  30      0.018740297180
  31      0.002354760619
  32     -0.000000000000
  33     -0.000000000000
  34      0.000012894123
  35     -0.000000000000
  36      0.000329025289
  37     -0.003991982704
  38      0.024655905493
  39      0.000000000000
  40      0.000000000000
  41     -0.000967864062
  42      0.000000000000
  43     -0.000000000000
  44      0.007996435768
  45     -0.000112322045
  46      0.000000000000
  47     -0.000000000000
  48     -0.000000960450
  49      0.000000000000
 Ene=  -0.79776676861620E+01
 Spin= Alpha
 Occup=    0.000000
   1      0.000000000000
   2      0.000000000000
   3      0.000000000000
   4      0.000000000000
   5      0.000000000000
   6      0.000000000000
   7      0.000000000000
   8      0.000000000000
   9      0.000000000000
  10      0.000000000000
  11      0.000000000000
  12      0.000000000000
  13      0.000000000000
  14      0.000000000000
  15      0.000000000000
  16      0.000000000000
  17      0.000000000000
  18      0.000000000000
  19      0.000000000000
  20      0.000000000000
  21      0.000000000000
  22      0.000000000000
  23      0.000000000000
  24      0.000000000000
  25      0.000000000000
  26      0.000000000000
  27      0.000000000000
  28      0.000000000000
  29      0.000000000000
  30      0.000000000000
  31      0.000000000000
  32      0.000000000000
  33      0.000000000000
  34      0.000000000000
  35      0.000000000000
  36      0.000000000000
  37      0.000000000000
  38      0.000000000000
  39      0.000000000000
  40      0.000000000000
  41      0.000000000000
  42      0.000000000000
  43      0.000000000000
  44      0.000000000000
  45      0.000000000000
  46      0.000000000000
  47      0.000000000000
  48      0.000000000000
  49      0.000000000000
 Ene=  -0.59653306553191E+01
 Spin= Alpha
 Occup=    1.000000
   1     -0.000000000000
   2      0.000000000000
   3     -0.000000000000
   4      0.000000000000
   5      0.000079736725
   6      0.000000000000
   7      0.000000000000
   8      0.980758335246
   9     -0.000000000000
  10      0.000000000002
  11      0.053145405164
  12     -0.000000000000
  13      0.000000000000
  14     -0.009492938666
  15      0.000000000000
  16     -0.000000000000
  17     -0.000000000000
  18     -0.000323218472
  19      0.000000000000
  20      0.000000000000
  21     -0.000000000000
  22      0.000000000000
  23      0.000000000000
  24     -0.000000000000
  25     -0.000310703979
  26      0.000000000000
  27      0.000000000000
  28      0.002182026774
  29     -0.000000000000
  30     -0.000000000000
  31      0.000000000000
  32     -0.000682447020
  33     -0.000000000000
  34     -0.000000000000
  35     -0.000000000000
  36     -0.000000000000
  37     -0.000000000000
  38      0.000000000000
  39      0.000016591691
  40      0.000000000000
  41     -0.000000000000
  42     -0.000952120063
  43      0.000000000000
  44     -0.000000000000
  45     -0.000000000000
  46     -0.000287909936
  47     -0.000000000000
  48     -0.000000000000
  49     -0.000000000000
 Ene=  -0.59595980100084E+01
 Spin= Alpha
 Occup=    1.000000
   1     -0.002788588999
   2      0.009946367198
   3     -0.003072128664
   4      0.000494333354
   5      0.000000000000
   6      0.000000000000
   7      0.000228175592
   8     -0.000000000002
   9     -0.000000000000
  10      0.980037055784
  11     -0.000000000000
  12     -0.000000000000
  13      0.055130847203
  14      0.000000000000
  15      0.000000000000
  16     -0.008966101195
  17     -0.002117060976
  18      0.000000000000
  19     -0.000000000000
  20      0.000011166805
  21     -0.000000000000
  22     -0.000186815451
  23      0.000537175346
  24     -0.007990000672
  25      0.000000000000
  26      0.000000000000
  27      0.001427253701
  28     -0.000000000000
  29      0.000000000000
  30      0.006443321972
  31      0.002831487198
  32     -0.000000000000
  33     -0.000000000000
  34     -0.000004592725
  35      0.000000000000
  36      0.000207844217
  37     -0.002337393019
  38      0.010071939669
  39      0.000000000000
  40     -0.000000000000
  41     -0.000956180310
  42      0.000000000000
  43     -0.000000000000
  44      0.003118893867
  45     -0.000472655195
  46      0.000000000000
  47     -0.000000000000
  48      0.000000526037
  49     -0.000000000000
 Ene=  -0.59568788230637E+01
 Spin= Alpha
 Occup=   -0.000000
   1      0.000000000000
   2      0.000000000000
   3      0.000000000000
   4      0.000000000000
   5      0.000000000000
   6      0.000000000000
   7      0.000000000000
   8      0.000000000000
   9      0.000000000000
  10      0.000000000000
  11      0.000000000000
  12      0.000000000000
  13      0.000000000000
  14      0.000000000000
  15      0.000000000000
  16      0.000000000000
  17      0.000000000000
  18      0.000000000000
  19      0.000000000000
  20      0.000000000000
  21      0.000000000000
  22      0.000000000000
  23      0.000000000000
  24      0.000000000000
  25      0.000000000000
  26      0.000000000000
  27      0.000000000000
  28      0.000000000000
  29      0.000000000000
  30      0.000000000000
  31      0.000000000000
  32      0.000000000000
  33      0.000000000000
  34      0.000000000000
  35      0.000000000000
  36      0.000000000000
  37      0.000000000000
  38      0.000000000000
  39      0.000000000000
  40      0.000000000000
  41      0.000000000000
  42      0.000000000000
  43      0.000000000000
  44      0.000000000000
  45      0.000000000000
  46      0.000000000000
  47      0.000000000000
  48      0.000000000000
  49      0.000000000000
 Ene=  -0.59504361894370E+01
 Spin= Alpha
 Occup=    0.000000
   1      0.000000000000
   2      0.000000000000
   3      0.000000000000
   4      0.000000000000
   5      0.000000000000
   6      0.000000000000
   7      0.000000000000
   8      0.000000000000
   9      0.000000000000
  10      0.000000000000
  11      0.000000000000
  12      0.000000000000
  13      0.000000000000
  14      0.000000000000
  15      0.000000000000
  16      0.000000000000
  17      0.000000000000
  18      0.000000000000
  19      0.000000000000
  20      0.000000000000
  21      0.000000000000
  22      0.000000000000
  23      0.000000000000
  24      0.000000000000
  25      0.000000000000
  26      0.000000000000
  27      0.000000000000
  28      0.000000000000
  29      0.000000000000
  30      0.000000000000
  31      0.000000000000
  32      0.000000000000
  33      0.000000000000
  34      0.000000000000
  35      0.000000000000
  36      0.000000000000
  37      0.000000000000
  38      0.000000000000
  39      0.000000000000
  40      0.000000000000
  41      0.000000000000
  42      0.000000000000
  43      0.000000000000
  44      0.000000000000
  45      0.000000000000
  46      0.000000000000
  47      0.000000000000
  48      0.000000000000
  49      0.000000000000
 Ene=  -0.59500035309918E+01
 Spin= Alpha
 Occup=    1.000000
   1     -0.000000000000
   2      0.000000000000
   3      0.000000000000
   4      0.000000000000
   5     -0.000000000000
   6     -0.000709442185
   7      0.000000000000
   8     -0.000000000000
   9     -0.980482622966
  10     -0.000000000000
  11     -0.000000000000
  12     -0.052308188939
  13     -0.000000000000
  14      0.000000000000
  15      0.009334942909
  16     -0.000000000000
  17      0.000000000000
  18     -0.000000000000
  19      0.000333430930
  20     -0.000000000000
  21     -0.000000000000
  22      0.000000000000
  23      0.000000000000
  24      0.000000000000
  25      0.000000000000
  26      0.000298728344
  27      0.000000000000
  28     -0.000000000000
  29     -0.002145985553
  30     -0.000000000000
  31     -0.000000000000
  32      0.000000000000
  33      0.000652156839
  34     -0.000000000000
  35     -0.000000000000
  36     -0.000000000000
  37      0.000000000000
  38     -0.000000000000
  39     -0.000000000000
  40     -0.000018885184
  41      0.000000000000
  42      0.000000000000
  43      0.000934531065
  44     -0.000000000000
  45     -0.000000000000
  46     -0.000000000000
  47      0.000277997036
  48      0.000000000000
  49     -0.000000000000
 Ene=  -0.59472990029775E+01
 Spin= Alpha
 Occup=    0.000000
   1      0.000000000000
   2      0.000000000000
   3      0.000000000000
   4      0.000000000000
   5      0.000000000000
   6      0.000000000000
   7      0.000000000000
   8      0.000000000000
   9      0.000000000000
  10      0.000000000000
  11      0.000000000000
  12      0.000000000000
  13      0.000000000000
  14      0.000000000000
  15      0.000000000000
  16      0.000000000000
  17      0.000000000000
  18      0.000000000000
  19      0.000000000000
  20      0.000000000000
  21      0.000000000000
  22      0.000000000000
  23      0.000000000000
  24      0.000000000000
  25      0.000000000000
  26      0.000000000000
  27      0.000000000000
  28      0.000000000000
  29      0.000000000000
  30      0.000000000000
  31      0.000000000000
  32      0.000000000000
  33      0.000000000000
  34      0.000000000000
  35      0.000000000000
  36      0.000000000000
  37      0.000000000000
  38      0.000000000000
  39      0.000000000000
  40      0.000000000000
  41      0.000000000000
  42      0.000000000000
  43      0.000000000000
  44      0.000000000000
  45      0.000000000000
  46      0.000000000000
  47      0.000000000000
  48      0.000000000000
  49      0.000000000000
 Ene=  -0.94229409964061E+00
 Spin= Alpha
 Occup=    1.000000
   1      0.016379183878
   2     -0.098851767862
   3      0.135466929331
   4      0.072653214722
   5     -0.000000000000
   6      0.000000000000
   7      0.001619046467
   8     -0.000000000000
   9     -0.000000000000
  10      0.023680830383
  11      0.000000000000
  12      0.000000000000
  13     -0.039680749266
  14      0.000000000000
  15      0.000000000000
  16     -0.038966802871
  17      0.014692168479
  18     -0.000000000000
  19      0.000000000000
  20      0.003058824290
  21     -0.000000000000
  22     -0.198728445349
  23      0.390585587288
  24      0.073069513067
  25      0.000000000000
  26     -0.000000000000
  27     -0.172467959054
  28      0.000000000000
  29     -0.000000000000
  30     -0.052965755630
  31      0.027412639982
  32      0.000000000000
  33     -0.000000000000
  34      0.000901915980
  35     -0.000000000000
  36     -0.227667283984
  37      0.455121762705
  38      0.123171863254
  39     -0.000000000000
  40      0.000000000000
  41      0.198250401696
  42     -0.000000000000
  43      0.000000000000
  44      0.012895402060
  45      0.016486646101
  46     -0.000000000000
  47     -0.000000000000
  48      0.003820950957
  49     -0.000000000000
 Ene=  -0.92654302078973E+00
 Spin= Alpha
 Occup=    0.000000
   1      0.000000000000
   2      0.000000000000
   3      0.000000000000
   4      0.000000000000
   5      0.000000000000
   6      0.000000000000
   7      0.000000000000
   8      0.000000000000
   9      0.000000000000
  10      0.000000000000
  11      0.000000000000
  12      0.000000000000
  13      0.000000000000
  14      0.000000000000
  15      0.000000000000
  16      0.000000000000
  17      0.000000000000
  18      0.000000000000
  19      0.000000000000
  20      0.000000000000
  21      0.000000000000
  22      0.000000000000
  23      0.000000000000
  24      0.000000000000
  25      0.000000000000
  26      0.000000000000
  27      0.000000000000
  28      0.000000000000
  29      0.000000000000
  30      0.000000000000
  31      0.000000000000
  32      0.000000000000
  33      0.000000000000
  34      0.000000000000
  35      0.000000000000
  36      0.000000000000
  37      0.000000000000
  38      0.000000000000
  39      0.000000000000
  40      0.000000000000
  41      0.000000000000
  42      0.000000000000
  43      0.000000000000
  44      0.000000000000
  45      0.000000000000
  46      0.000000000000
  47      0.000000000000
  48      0.000000000000
  49      0.000000000000
 Ene=  -0.82102845285361E+00
 Spin= Alpha
 Occup=    1.000000
   1     -0.071999067578
   2      0.438604406815
   3     -0.620855392986
   4     -0.246546749384
   5     -0.000000000000
   6     -0.000000000000
   7     -0.005607489744
   8     -0.000000000000
   9     -0.000000000000
  10     -0.062481769462
  11      0.000000000000
  12      0.000000000000
  13      0.111842480407
  14      0.000000000000
  15      0.000000000000
  16      0.063480384926
  17     -0.029202414349
  18     -0.000000000000
  19     -0.000000000000
  20     -0.014798771233
  21      0.000000000000
  22      0.068011405878
  23     -0.146022018531
  24     -0.006960359964
  25      0.000000000000
  26      0.000000000000
  27     -0.273919069639
  28     -0.000000000000
  29      0.000000000000
  30     -0.045771372395
  31     -0.013032651016
  32      0.000000000000
  33     -0.000000000000
  34     -0.000134488905
  35     -0.000000000000
  36     -0.092428224304
  37      0.192618110283
  38      0.052138168734
  39     -0.000000000000
  40      0.000000000000
  41      0.067505825244
  42     -0.000000000000
  43     -0.000000000000
  44     -0.001636817546
  45      0.005439734588
  46     -0.000000000000
  47     -0.000000000000
  48      0.001548367645
  49     -0.000000000000
 Ene=  -0.79824537823151E+00
 Spin= Alpha
 Occup=    0.000000
   1      0.000000000000
   2      0.000000000000
   3      0.000000000000
   4      0.000000000000
   5      0.000000000000
   6      0.000000000000
   7      0.000000000000
   8      0.000000000000
   9      0.000000000000
  10      0.000000000000
  11      0.000000000000
  12      0.000000000000
  13      0.000000000000
  14      0.000000000000
  15      0.000000000000
  16      0.000000000000
  17      0.000000000000
  18      0.000000000000
  19      0.000000000000
  20      0.000000000000
  21      0.000000000000
  22      0.000000000000
  23      0.000000000000
  24      0.000000000000
  25      0.000000000000
  26      0.000000000000
  27      0.000000000000
  28      0.000000000000
  29      0.000000000000
  30      0.000000000000
  31      0.000000000000
  32      0.000000000000
  33      0.000000000000
  34      0.000000000000
  35      0.000000000000
  36      0.000000000000
  37      0.000000000000
  38      0.000000000000
  39      0.000000000000
  40      0.000000000000
  41      0.000000000000
  42      0.000000000000
  43      0.000000000000
  44      0.000000000000
  45      0.000000000000
  46      0.000000000000
  47      0.000000000000
  48      0.000000000000
  49      0.000000000000
 Ene=  -0.50682215928681E+00
 Spin= Alpha
 Occup=    1.000000
   1      0.044534483982
   2     -0.279423915519
   3      0.392630152534
   4      0.385468725760
   5     -0.000000000000
   6      0.000000000000
   7     -0.021415352276
   8     -0.000000000000
   9      0.000000000000
  10     -0.164294265313
  11      0.000000000000
  12     -0.000000000000
  13      0.319241326243
  14      0.000000000000
  15     -0.000000000000
  16      0.255939807531
  17     -0.057089690699
  18     -0.000000000000
  19     -0.000000000000
  20      0.014413507861
  21     -0.000000000000
  22      0.146426180188
  23     -0.328085969896
  24     -0.132562433335
  25      0.000000000000
  26      0.000000000000
  27     -0.226849740886
  28      0.000000000000
  29      0.000000000000
  30     -0.138451775738
  31     -0.010887960379
  32      0.000000000000
  33     -0.000000000000
  34     -0.000274784558
  35     -0.000000000000
  36     -0.080338597907
  37      0.180885150873
  38      0.053958261631
  39     -0.000000000000
  40      0.000000000000
  41     -0.056596718713
  42     -0.000000000000
  43      0.000000000000
  44     -0.058802129686
  45     -0.004560224398
  46      0.000000000000
  47     -0.000000000000
  48      0.001458405363
  49     -0.000000000000
 Ene=  -0.49247253106770E+00
 Spin= Alpha
 Occup=   -0.000000
   1      0.000000000000
   2      0.000000000000
   3      0.000000000000
   4      0.000000000000
   5      0.000000000000
   6      0.000000000000
   7      0.000000000000
   8      0.000000000000
   9      0.000000000000
  10      0.000000000000
  11      0.000000000000
  12      0.000000000000
  13      0.000000000000
  14      0.000000000000
  15      0.000000000000
  16      0.000000000000
  17      0.000000000000
  18      0.000000000000
  19      0.000000000000
  20      0.000000000000
  21      0.000000000000
  22      0.000000000000
  23      0.000000000000
  24      0.000000000000
  25      0.000000000000
  26      0.000000000000
  27      0.000000000000
  28      0.000000000000
  29      0.000000000000
  30      0.000000000000
  31      0.000000000000
  32      0.000000000000
  33      0.000000000000
  34      0.000000000000
  35      0.000000000000
  36      0.000000000000
  37      0.000000000000
  38      0.000000000000
  39      0.000000000000
  40      0.000000000000
  41      0.000000000000
  42      0.000000000000
  43      0.000000000000
  44      0.000000000000
  45      0.000000000000
  46      0.000000000000
  47      0.000000000000
  48      0.000000000000
  49      0.000000000000
 Ene=  -0.43083604693764E+00
 Spin= Alpha
 Occup=    1.000000
   1      0.000000000000
   2     -0.000000000000
   3     -0.000000000000
   4      0.000000000000
   5     -0.015228728475
   6      0.000000000000
   7     -0.000000000000
   8     -0.131775186216
   9      0.000000000000
  10     -0.000000000000
  11      0.261359845415
  12     -0.000000000000
  13      0.000000000000
  14      0.285071102395
  15     -0.000000000000
  16     -0.000000000000
  17     -0.000000000000
  18     -0.046417263498
  19     -0.000000000000
  20     -0.000000000000
  21     -0.000000000000
  22     -0.000000000000
  23      0.000000000000
  24      0.000000000000
  25      0.381431590881
  26      0.000000000000
  27     -0.000000000000
  28      0.197084445023
  29      0.000000000000
  30     -0.000000000000
  31     -0.000000000000
  32     -0.005163180441
  33      0.000000000000
  34      0.000000000000
  35     -0.000000000000
  36      0.000000000000
  37     -0.000000000000
  38     -0.000000000000
  39      0.348428755404
  40      0.000000000000
  41      0.000000000000
  42      0.178158730774
  43     -0.000000000000
  44      0.000000000000
  45      0.000000000000
  46      0.026979356084
  47     -0.000000000000
  48     -0.000000000000
  49      0.000000000000
 Ene=  -0.41261299609370E+00
 Spin= Alpha
 Occup=    1.000000
   1     -0.000000000000
   2      0.000000000000
   3     -0.000000000000
   4      0.000000000000
   5     -0.000000000000
   6      0.014772886996
   7      0.000000000000
   8     -0.000000000000
   9      0.113439931231
  10      0.000000000000
  11      0.000000000000
  12     -0.225551549254
  13     -0.000000000000
  14      0.000000000000
  15     -0.244755750055
  16     -0.000000000000
  17     -0.000000000000
  18     -0.000000000000