[Molden Format]
[Title]
generated by TRESC, real part2 of MOs of job CO3
 
[Atoms] AU
 C   1   6    0.3364484192    5.8882927452    0.3891081484
 O   2   8    2.6974300312    5.9862747024    0.4085979628
 O   3   8   -0.7714112401    7.4618585764    1.8371371576
 O   4   8   -0.6184572465    4.2284969646   -1.0743142370
[GTO]
  1 0
 s  5 1.0
     1238.4016938000        0.0059599745
      186.2900499200        0.0422621111
       42.2511763500        0.1866575214
       11.6765579300        0.4675815865
        3.5930506500        0.4422897287
 s  1 1.0
        0.4024514700        1.0000000000
 s  1 1.0
        0.1309018300        1.0000000000
 p  3 1.0
        9.4680970600        0.0570294585
        2.0103545100        0.3130471495
        0.5477100500        0.7605135301
 p  1 1.0
        0.1526861400        1.0000000000
 d  1 1.0
        0.8000000000        1.0000000000
 
  2 0
 s  5 1.0
     2266.1767785000        0.0060711540
      340.8701019100        0.0417308970
       77.3631351700        0.1850777598
       21.4796449400        0.4668774046
        6.6589433100        0.4435718061
 s  1 1.0
        0.8097597600        1.0000000000
 s  1 1.0
        0.2553077200        1.0000000000
 p  3 1.0
       17.7215043200        0.0628680198
        3.8635505400        0.3334973703
        1.0480920900        0.7412421661
 p  1 1.0
        0.2764154400        1.0000000000
 d  1 1.0
        1.2000000000        1.0000000000
 
  3 0
 s  5 1.0
     2266.1767785000        0.0060711540
      340.8701019100        0.0417308970
       77.3631351700        0.1850777598
       21.4796449400        0.4668774046
        6.6589433100        0.4435718061
 s  1 1.0
        0.8097597600        1.0000000000
 s  1 1.0
        0.2553077200        1.0000000000
 p  3 1.0
       17.7215043200        0.0628680198
        3.8635505400        0.3334973703
        1.0480920900        0.7412421661
 p  1 1.0
        0.2764154400        1.0000000000
 d  1 1.0
        1.2000000000        1.0000000000
 
  4 0
 s  5 1.0
     2266.1767785000        0.0060711540
      340.8701019100        0.0417308970
       77.3631351700        0.1850777598
       21.4796449400        0.4668774046
        6.6589433100        0.4435718061
 s  1 1.0
        0.8097597600        1.0000000000
 s  1 1.0
        0.2553077200        1.0000000000
 p  3 1.0
       17.7215043200        0.0628680198
        3.8635505400        0.3334973703
        1.0480920900        0.7412421661
 p  1 1.0
        0.2764154400        1.0000000000
 d  1 1.0
        1.2000000000        1.0000000000
 
[5D]
[7F]
[9G]
[MO]
 Ene=   0.10138837008472E+01
 Spin= Alpha
 Occup=    0.000000
   1      0.000000000000
   2      0.000000000000
   3      0.000000000000
   4      0.000000000000
   5      0.000000000000
   6      0.000000000000
   7      0.000000000000
   8      0.000000000000
   9      0.000000000000
  10      0.000000000000
  11      0.000000000000
  12      0.000000000000
  13      0.000000000000
  14      0.000000000000
  15      0.000000000000
  16      0.000000000000
  17      0.000000000000
  18      0.000000000000
  19      0.000000000000
  20      0.000000000000
  21      0.000000000000
  22      0.000000000000
  23      0.000000000000
  24      0.000000000000
  25      0.000000000000
  26      0.000000000000
  27      0.000000000000
  28      0.000000000000
  29      0.000000000000
  30      0.000000000000
  31      0.000000000000
  32      0.000000000000
  33      0.000000000000
  34      0.000000000000
  35      0.000000000000
  36      0.000000000000
  37      0.000000000000
  38      0.000000000000
  39      0.000000000000
  40      0.000000000000
  41      0.000000000000
  42      0.000000000000
  43      0.000000000000
  44      0.000000000000
  45      0.000000000000
  46      0.000000000000
  47      0.000000000000
  48      0.000000000000
  49      0.000000000000
  50      0.000000000000
  51      0.000000000000
  52      0.000000000000
  53      0.000000000000
  54      0.000000000000
  55      0.000000000000
  56      0.000000000000
 Ene=   0.10406016612812E+01
 Spin= Alpha
 Occup=    0.000000
   1      0.000000000000
   2      0.000000000000
   3      0.000000000000
   4      0.000000000000
   5      0.000000000000
   6      0.000000000000
   7      0.000000000000
   8      0.000000000000
   9      0.000000000000
  10      0.000000000000
  11      0.000000000000
  12      0.000000000000
  13      0.000000000000
  14      0.000000000000
  15      0.000000000000
  16      0.000000000000
  17      0.000000000000
  18      0.000000000000
  19      0.000000000000
  20      0.000000000000
  21      0.000000000000
  22      0.000000000000
  23      0.000000000000
  24      0.000000000000
  25      0.000000000000
  26      0.000000000000
  27      0.000000000000
  28      0.000000000000
  29      0.000000000000
  30      0.000000000000
  31      0.000000000000
  32      0.000000000000
  33      0.000000000000
  34      0.000000000000
  35      0.000000000000
  36      0.000000000000
  37      0.000000000000
  38      0.000000000000
  39      0.000000000000
  40      0.000000000000
  41      0.000000000000
  42      0.000000000000
  43      0.000000000000
  44      0.000000000000
  45      0.000000000000
  46      0.000000000000
  47      0.000000000000
  48      0.000000000000
  49      0.000000000000
  50      0.000000000000
  51      0.000000000000
  52      0.000000000000
  53      0.000000000000
  54      0.000000000000
  55      0.000000000000
  56      0.000000000000
 Ene=   0.10578426816979E+01
 Spin= Alpha
 Occup=    0.000000
   1      0.000096896458
   2     -0.000331489098
   3     -0.004119364318
   4     -0.007979408656
   5      0.172709331108
   6      0.155507011572
   7      0.038984333671
   8     -0.878903301194
   9     -0.791301470449
  10     -0.002575851082
  11     -0.182854323289
  12     -0.009312654450
  13      0.018827821826
  14     -0.202707201262
  15      0.000275383102
  16     -0.001699630962
  17      0.005005724647
  18      0.018756947119
  19     -0.405685096860
  20     -0.365294663195
  21     -0.039411131029
  22      0.822095293592
  23      0.740270302977
  24      0.000628560919
  25      0.047176701431
  26      0.002557641787
  27     -0.004706606145
  28      0.052315647540
  29      0.001075279169
  30      0.027795756852
  31      0.358498448739
  32     -0.058710270744
  33     -0.290229081377
  34     -0.258503059390
  35      0.105533358754
  36      0.527525892657
  37      0.470138523506
  38     -0.000948257504
  39     -0.001483225863
  40      0.042977105273
  41     -0.007506796295
  42     -0.000618329398
  43     -0.000681189358
  44     -0.030270335981
  45     -0.354524335539
  46      0.083655390540
  47     -0.283683572079
  48     -0.258164443804
  49     -0.150775303455
  50      0.516264172044
  51      0.469546498662
  52      0.000867893893
  53      0.001881777825
  54     -0.042985532694
  55      0.007522080211
  56      0.001059413258
 Ene=   0.10927758411000E+01
 Spin= Alpha
 Occup=    0.000000
   1      0.000000000000
   2      0.000000000000
   3      0.000000000000
   4      0.000000000000
   5      0.000000000000
   6      0.000000000000
   7      0.000000000000
   8      0.000000000000
   9      0.000000000000
  10      0.000000000000
  11      0.000000000000
  12      0.000000000000
  13      0.000000000000
  14      0.000000000000
  15      0.000000000000
  16      0.000000000000
  17      0.000000000000
  18      0.000000000000
  19      0.000000000000
  20      0.000000000000
  21      0.000000000000
  22      0.000000000000
  23      0.000000000000
  24      0.000000000000
  25      0.000000000000
  26      0.000000000000
  27      0.000000000000
  28      0.000000000000
  29      0.000000000000
  30      0.000000000000
  31      0.000000000000
  32      0.000000000000
  33      0.000000000000
  34      0.000000000000
  35      0.000000000000
  36      0.000000000000
  37      0.000000000000
  38      0.000000000000
  39      0.000000000000
  40      0.000000000000
  41      0.000000000000
  42      0.000000000000
  43      0.000000000000
  44      0.000000000000
  45      0.000000000000
  46      0.000000000000
  47      0.000000000000
  48      0.000000000000
  49      0.000000000000
  50      0.000000000000
  51      0.000000000000
  52      0.000000000000
  53      0.000000000000
  54      0.000000000000
  55      0.000000000000
  56      0.000000000000
 Ene=   0.11083831735656E+01
 Spin= Alpha
 Occup=    0.000000
   1      0.012872019286
   2     -0.189462687863
   3     -0.793352382761
   4      0.230386392290
   5      0.008894191309
   6      0.001062425198
   7     -1.047315829332
   8     -0.043705508395
   9     -0.006980604128
  10     -0.085678399096
  11      0.008620134831
  12     -0.129405001969
  13      0.175219992326
  14      0.016153322436
  15      0.008974175827
  16     -0.028287537166
  17      0.610586264424
  18     -0.136011390012
  19     -0.010766289348
  20     -0.004030239500
  21      0.326116848958
  22      0.020432259192
  23      0.006185938029
  24     -0.017582964810
  25     -0.001179041837
  26      0.043955778373
  27      0.021054979142
  28      0.001764532214
  29      0.055767700609
  30     -0.380327335679
  31      0.568220266425
  32     -0.524237002597
  33     -0.124533619742
  34     -0.096149888860
  35      1.057985493973
  36      0.054228945764
  37      0.016749683237
  38      0.013649850133
  39      0.027674116775
  40      0.007977763070
  41     -0.027148474275
  42      0.029321537745
  43      0.055399563838
  44     -0.377941609915
  45      0.563845011158
  46     -0.549153157183
  47      0.086784535628
  48      0.094585341546
  49      1.078854212077
  50      0.023420314994
  51     -0.011581738006
  52      0.013462249494
  53     -0.029563831536
  54      0.005779311205
  55     -0.022528947754
  56     -0.034188906972
 Ene=   0.11253189969765E+01
 Spin= Alpha
 Occup=    0.000000
   1      0.000000000000
   2      0.000000000000
   3      0.000000000000
   4      0.000000000000
   5      0.000000000000
   6      0.000000000000
   7      0.000000000000
   8      0.000000000000
   9      0.000000000000
  10      0.000000000000
  11      0.000000000000
  12      0.000000000000
  13      0.000000000000
  14      0.000000000000
  15      0.000000000000
  16      0.000000000000
  17      0.000000000000
  18      0.000000000000
  19      0.000000000000
  20      0.000000000000
  21      0.000000000000
  22      0.000000000000
  23      0.000000000000
  24      0.000000000000
  25      0.000000000000
  26      0.000000000000
  27      0.000000000000
  28      0.000000000000
  29      0.000000000000
  30      0.000000000000
  31      0.000000000000
  32      0.000000000000
  33      0.000000000000
  34      0.000000000000
  35      0.000000000000
  36      0.000000000000
  37      0.000000000000
  38      0.000000000000
  39      0.000000000000
  40      0.000000000000
  41      0.000000000000
  42      0.000000000000
  43      0.000000000000
  44      0.000000000000
  45      0.000000000000
  46      0.000000000000
  47      0.000000000000
  48      0.000000000000
  49      0.000000000000
  50      0.000000000000
  51      0.000000000000
  52      0.000000000000
  53      0.000000000000
  54      0.000000000000
  55      0.000000000000
  56      0.000000000000
 Ene=   0.11257443704963E+01
 Spin= Alpha
 Occup=    0.000000
   1      0.000241305335
   2     -0.003610319646
   3     -0.014639396727
   4      0.003153371545
   5      0.003524645292
   6      0.003069136456
   7     -0.022340388721
   8      0.131824859470
   9      0.119262753304
  10     -0.001438299463
  11     -0.028426722818
  12     -0.003194754429
  13      0.005057677891
  14     -0.031440207471
  15      0.000241532783
  16     -0.001150614653
  17      0.011060285803
  18     -0.019630465494
  19      0.378222721545
  20      0.340687827595
  21      0.032037638238
  22     -0.594319286117
  23     -0.535373798591
  24     -0.000761337096
  25     -0.036339707729
  26     -0.001054619601
  27      0.003933349073
  28     -0.040240727811
  29     -0.004151770954
  30      0.024455049110
  31     -0.109852809835
  32     -0.479243163656
  33     -0.218443967589
  34     -0.182427090333
  35      0.662651314099
  36      0.313748373177
  37      0.262737748185
  38      0.018549003389
  39      0.019076748123
  40      0.016184636839
  41     -0.036778923878
  42      0.019422670762
  43      0.006167673767
  44     -0.038137221359
  45      0.131112262264
  46      0.482628699417
  47     -0.175807268255
  48     -0.172065291780
  49     -0.658173571903
  50      0.259797693618
  51      0.252656467392
  52     -0.017668383167
  53      0.020460072232
  54     -0.014099960134
  55      0.032213702892
  56      0.024376966286
 Ene=   0.11423401677405E+01
 Spin= Alpha
 Occup=    0.000000
   1      0.000071329557
   2     -0.001496733171
   3     -0.004009974579
   4     -0.002215367085
   5      0.053802687068
   6     -0.059873464651
   7      0.026703197795
   8     -0.792503602356
   9      0.881533651509
  10      0.000237482497
  11     -0.006018027170
  12     -0.000214839450
  13     -0.000693692145
  14      0.005380330247
  15      0.000359348504
  16     -0.002390145694
  17      0.004055074814
  18      0.011406543815
  19     -0.339846043646
  20      0.378005187343
  21     -0.021935682584
  22      0.610708419356
  23     -0.679361289673
  24     -0.000347724920
  25     -0.020694698370
  26     -0.000702653270
  27     -0.001512346300
  28      0.018566463299
  29      0.000201472660
  30     -0.001291503646
  31      0.002736031746
  32      0.012710773752
  33     -0.365202928290
  34      0.406733774478
  35     -0.022601202996
  36      0.658706979170
  37     -0.734383114651
  38     -0.032600400469
  39      0.008320337015
  40     -0.003701450361
  41     -0.018150675823
  42     -0.008629867638
  43      0.000199000777
  44     -0.001276368020
  45      0.002715164285
  46      0.012653463011
  47     -0.364791277036
  48      0.405351949657
  49     -0.022576103528
  50      0.659275387284
  51     -0.731774424051
  52      0.032702675732
  53      0.007581514699
  54      0.004280937619
  55      0.019430130157
  56     -0.005628059963
 Ene=   0.11822687164297E+01
 Spin= Alpha
 Occup=    0.000000
   1      0.000000000000
   2      0.000000000000
   3      0.000000000000
   4      0.000000000000
   5      0.000000000000
   6      0.000000000000
   7      0.000000000000
   8      0.000000000000
   9      0.000000000000
  10      0.000000000000
  11      0.000000000000
  12      0.000000000000
  13      0.000000000000
  14      0.000000000000
  15      0.000000000000
  16      0.000000000000
  17      0.000000000000
  18      0.000000000000
  19      0.000000000000
  20      0.000000000000
  21      0.000000000000
  22      0.000000000000
  23      0.000000000000
  24      0.000000000000
  25      0.000000000000
  26      0.000000000000
  27      0.000000000000
  28      0.000000000000
  29      0.000000000000
  30      0.000000000000
  31      0.000000000000
  32      0.000000000000
  33      0.000000000000
  34      0.000000000000
  35      0.000000000000
  36      0.000000000000
  37      0.000000000000
  38      0.000000000000
  39      0.000000000000
  40      0.000000000000
  41      0.000000000000
  42      0.000000000000
  43      0.000000000000
  44      0.000000000000
  45      0.000000000000
  46      0.000000000000
  47      0.000000000000
  48      0.000000000000
  49      0.000000000000
  50      0.000000000000
  51      0.000000000000
  52      0.000000000000
  53      0.000000000000
  54      0.000000000000
  55      0.000000000000
  56      0.000000000000
 Ene=   0.11973559392519E+01
 Spin= Alpha
 Occup=    0.000000
   1      0.000000000000
   2      0.000000000000
   3      0.000000000000
   4      0.000000000000
   5      0.000000000000
   6      0.000000000000
   7      0.000000000000
   8      0.000000000000
   9      0.000000000000
  10      0.000000000000
  11      0.000000000000
  12      0.000000000000
  13      0.000000000000
  14      0.000000000000
  15      0.000000000000
  16      0.000000000000
  17      0.000000000000
  18      0.000000000000
  19      0.000000000000
  20      0.000000000000
  21      0.000000000000
  22      0.000000000000
  23      0.000000000000
  24      0.000000000000
  25      0.000000000000
  26      0.000000000000
  27      0.000000000000
  28      0.000000000000
  29      0.000000000000
  30      0.000000000000
  31      0.000000000000
  32      0.000000000000
  33      0.000000000000
  34      0.000000000000
  35      0.000000000000
  36      0.000000000000
  37      0.000000000000
  38      0.000000000000
  39      0.000000000000
  40      0.000000000000
  41      0.000000000000
  42      0.000000000000
  43      0.000000000000
  44      0.000000000000
  45      0.000000000000
  46      0.000000000000
  47      0.000000000000
  48      0.000000000000
  49      0.000000000000
  50      0.000000000000
  51      0.000000000000
  52      0.000000000000
  53      0.000000000000
  54      0.000000000000
  55      0.000000000000
  56      0.000000000000
 Ene=   0.11999083203921E+01
 Spin= Alpha
 Occup=    0.000000
   1      0.051177174350
   2     -0.868311655790
   3     -3.202144205115
   4     -0.137966782801
   5     -0.006098577301
   6     -0.001387669306
   7     -0.329298189395
   8     -0.013071535215
   9     -0.006262846901
  10      0.052501457438
  11      0.000332096437
  12     -0.034744726219
  13     -0.083331565478
  14     -0.006340571756
  15      0.212369943690
  16     -1.428312100337
  17      3.038095876851
  18      0.122795780655
  19      0.005509180539
  20      0.000105616641
  21     -1.071148546952
  22     -0.045707751083
  23     -0.007428658547
  24      0.015223096427
  25     -0.002386413581
  26      0.042607967211
  27     -0.035263836677
  28     -0.003497256545
  29      0.145572411974
  30     -0.967108008865
  31      2.056729734950
  32      0.053704369106
  33      0.073220601874
  34      0.062946611527
  35      0.165220143093
  36     -0.480033597653
  37     -0.433949538917
  38     -0.029040847611
  39      0.004333037205
  40      0.007318839490
  41      0.048523745367
  42      0.008299235144
  43      0.145118732498
  44     -0.964468218598
  45      2.050571690425
  46      0.059405032870
  47     -0.066714225361
  48     -0.063028911189
  49      0.120805055748
  50      0.487383145092
  51      0.437112059042
  52     -0.029124255430
  53     -0.003591826673
  54      0.007042383773
  55      0.048879563276
  56     -0.000514266982
 Ene=   0.12208565723109E+01
 Spin= Alpha
 Occup=    0.000000
   1      0.000000000000
   2      0.000000000000
   3      0.000000000000
   4      0.000000000000
   5      0.000000000000
   6      0.000000000000
   7      0.000000000000
   8      0.000000000000
   9      0.000000000000
  10      0.000000000000
  11      0.000000000000
  12      0.000000000000
  13      0.000000000000
  14      0.000000000000
  15      0.000000000000
  16      0.000000000000
  17      0.000000000000
  18      0.000000000000
  19      0.000000000000
  20      0.000000000000
  21      0.000000000000
  22      0.000000000000
  23      0.000000000000
  24      0.000000000000
  25      0.000000000000
  26      0.000000000000
  27      0.000000000000
  28      0.000000000000
  29      0.000000000000
  30      0.000000000000
  31      0.000000000000
  32      0.000000000000
  33      0.000000000000
  34      0.000000000000
  35      0.000000000000
  36      0.000000000000
  37      0.000000000000
  38      0.000000000000
  39      0.000000000000
  40      0.000000000000
  41      0.000000000000
  42      0.000000000000
  43      0.000000000000
  44      0.000000000000
  45      0.000000000000
  46      0.000000000000
  47      0.000000000000
  48      0.000000000000
  49      0.000000000000
  50      0.000000000000
  51      0.000000000000
  52      0.000000000000
  53      0.000000000000
  54      0.000000000000
  55      0.000000000000
  56      0.000000000000
 Ene=   0.15265233755220E+01
 Spin= Alpha
 Occup=    0.000000
   1      0.017235224399
   2     -0.178968901251
   3     -0.414927104036
   4      0.438625607278
   5      0.018038191472
   6      0.003348114702
   7      3.076517514634
   8      0.129453113761
   9      0.025465605859
  10     -0.114378728539
  11      0.011660462748
  12     -0.228776884435
  13      0.245692914984
  14      0.022857416581
  15     -0.177810142711
  16      1.353263191687
  17     -3.680455027825
  18     -0.060372976932
  19     -0.002423154763
  20     -0.000544774694
  21      1.154437752414
  22      0.046981649510
  23      0.010008612463
  24     -0.036980487907
  25      0.001161673297
  26      0.005040991057
  27      0.062818498235
  28      0.004876510172
  29      0.122464558869
  30     -0.936620306399
  31      2.313029143280
  32      0.226020019218
  33      0.126654968821
  34      0.107195522938
  35     -0.366218574969
  36     -0.847984909831
  37     -0.752104325272
  38      0.007925620665
  39      0.022080408858
  40     -0.051868482962
  41     -0.004594917642
  42      0.022514436242
  43      0.122621796311
  44     -0.937700173637
  45      2.316965646851
  46      0.236598731050
  47     -0.107996416203
  48     -0.104080583916
  49     -0.444279502325
  50      0.815709382034
  51      0.745933059814
  52      0.007663369911
  53     -0.018160522073
  54     -0.053868571822
  55      0.000002921893
  56     -0.022058988804
 Ene=   0.15452661256579E+01
 Spin= Alpha
 Occup=    0.000000
   1      0.000000000000
   2      0.000000000000
   3      0.000000000000
   4      0.000000000000
   5      0.000000000000
   6      0.000000000000
   7      0.000000000000
   8      0.000000000000
   9      0.000000000000
  10      0.000000000000
  11      0.000000000000
  12      0.000000000000
  13      0.000000000000
  14      0.000000000000
  15      0.000000000000
  16      0.000000000000
  17      0.000000000000
  18      0.000000000000
  19      0.000000000000
  20      0.000000000000
  21      0.000000000000
  22      0.000000000000
  23      0.000000000000
  24      0.000000000000
  25      0.000000000000
  26      0.000000000000
  27      0.000000000000
  28      0.000000000000
  29      0.000000000000
  30      0.000000000000
  31      0.000000000000
  32      0.000000000000
  33      0.000000000000
  34      0.000000000000
  35      0.000000000000
  36      0.000000000000
  37      0.000000000000
  38      0.000000000000
  39      0.000000000000
  40      0.000000000000
  41      0.000000000000
  42      0.000000000000
  43      0.000000000000
  44      0.000000000000
  45      0.000000000000
  46      0.000000000000
  47      0.000000000000
  48      0.000000000000
  49      0.000000000000
  50      0.000000000000
  51      0.000000000000
  52      0.000000000000
  53      0.000000000000
  54      0.000000000000
  55      0.000000000000
  56      0.000000000000
 Ene=   0.15597692910060E+01
 Spin= Alpha
 Occup=    0.000000
   1      0.000091493561
   2     -0.000041343660
   3     -0.001850109849
   4     -0.018697935670
   5      0.382691865501
   6      0.344613637630
   7     -0.138038461011
   8      2.889693664061
   9      2.602010299933
  10     -0.017381652740
  11     -0.246819999418
  12     -0.014338273757
  13      0.015985673839
  14     -0.274471865533
  15      0.000215124054
  16     -0.001879977937
  17      0.002701291580
  18     -0.009347086059
  19      0.193524526786
  20      0.174272878511
  21      0.032286485578
  22     -0.704556131375
  23     -0.634342070754
  24     -0.001075881445
  25      0.034137470077
  26      0.001134058620
  27     -0.004492426637
  28      0.037686984830
  29     -0.183988135636
  30      1.412831673959
  31     -4.039508065415
  32      0.150384986896
  33      0.037228533104
  34      0.030490843730
  35     -0.974831125612
  36      0.596112376199
  37      0.570474860360
  38      0.014853806986
  39     -0.039507750800
  40      0.046471830381
  41     -0.026140005822
  42     -0.040095910381
  43      0.184141501672
  44     -1.414215769476
  45      4.040677518624
  46     -0.153876264301
  47      0.025699684878
  48      0.026190648770
  49      0.915792270836
  50      0.680730615326
  51      0.579206483286
  52     -0.009469828661
  53     -0.031157153721
  54     -0.049401163396
  55      0.036532884445
  56     -0.037891469666
 Ene=   0.15674830985899E+01
 Spin= Alpha
 Occup=    0.000000
   1     -0.000001948635
   2      0.000004069110
   3      0.000041428744
   4      0.000358211346
   5     -0.007546103483
   6     -0.006458297172
   7      0.002614690113
   8     -0.055766235279
   9     -0.051870222809
  10     -0.749322226533
  11      0.010237086462
  12     -0.091419056761
  13     -0.432012335538
  14     -0.025732301717
  15     -0.000000991067
  16      0.000012108033
  17      0.000018346473
  18      0.000191064056
  19     -0.004089043841
  20     -0.002949527549
  21     -0.000612027789
  22      0.012489458513
  23      0.014111460943
  24     -0.084009803191
  25      0.002123066067
  26     -0.010227535262
  27     -0.048207874909
  28     -0.005801894937
  29      0.003565066523
  30     -0.027424966193
  31      0.078739427366
  32     -0.001428653707
  33     -0.045280953467
  34      0.048947520208
  35      0.023179090644
  36     -0.136282136134
  37      0.127667917466
  38      0.157896970079
  39     -0.099606341059
  40      0.015126387589
  41      0.085651923248
  42      0.096446673942
  43     -0.003572027687
  44      0.027484102238
  45     -0.078846373481
  46      0.001485908789
  47      0.044131372939
  48     -0.050168587384
  49     -0.022019645055
  50      0.111690735273
  51     -0.150226423098
  52      0.162527714880
  53      0.096565980268
  54      0.024074152108
  55      0.098602184259
  56     -0.079765834739
 Ene=   0.15782669768043E+01
 Spin= Alpha
 Occup=    0.000000
   1      0.000000000000
   2      0.000000000000
   3      0.000000000000
   4      0.000000000000
   5      0.000000000000
   6      0.000000000000
   7      0.000000000000
   8      0.000000000000
   9      0.000000000000
  10      0.000000000000
  11      0.000000000000
  12      0.000000000000
  13      0.000000000000
  14      0.000000000000
  15      0.000000000000
  16      0.000000000000
  17      0.000000000000
  18      0.000000000000
  19      0.000000000000
  20      0.000000000000
  21      0.000000000000
  22      0.000000000000
  23      0.000000000000
  24      0.000000000000
  25      0.000000000000
  26      0.000000000000
  27      0.000000000000
  28      0.000000000000
  29      0.000000000000
  30      0.000000000000
  31      0.000000000000
  32      0.000000000000
  33      0.000000000000
  34      0.000000000000
  35      0.000000000000
  36      0.000000000000
  37      0.000000000000
  38      0.000000000000
  39      0.000000000000
  40      0.000000000000
  41      0.000000000000
  42      0.000000000000
  43      0.000000000000
  44      0.000000000000
  45      0.000000000000
  46      0.000000000000
  47      0.000000000000
  48      0.000000000000
  49      0.000000000000
  50      0.000000000000
  51      0.000000000000
  52      0.000000000000
  53      0.000000000000
  54      0.000000000000
  55      0.000000000000
  56      0.000000000000
 Ene=   0.15797838634910E+01
 Spin= Alpha
 Occup=    0.000000
   1      0.000000000000
   2      0.000000000000
   3      0.000000000000
   4      0.000000000000
   5      0.000000000000
   6      0.000000000000
   7      0.000000000000
   8      0.000000000000
   9      0.000000000000
  10      0.000000000000
  11      0.000000000000
  12      0.000000000000
  13      0.000000000000
  14      0.000000000000
  15      0.000000000000
  16      0.000000000000
  17      0.000000000000
  18      0.000000000000
  19      0.000000000000
  20      0.000000000000
  21      0.000000000000
  22      0.000000000000
  23      0.000000000000
  24      0.000000000000
  25      0.000000000000
  26      0.000000000000
  27      0.000000000000
  28      0.000000000000
  29      0.000000000000
  30      0.000000000000
  31      0.000000000000
  32      0.000000000000
  33      0.000000000000
  34      0.000000000000
  35      0.000000000000
  36      0.000000000000
  37      0.000000000000
  38      0.000000000000
  39      0.000000000000
  40      0.000000000000
  41      0.000000000000
  42      0.000000000000
  43      0.000000000000
  44      0.000000000000
  45      0.000000000000
  46      0.000000000000
  47      0.000000000000
  48      0.000000000000
  49      0.000000000000
  50      0.000000000000
  51      0.000000000000
  52      0.000000000000
  53      0.000000000000
  54      0.000000000000
  55      0.000000000000
  56      0.000000000000
 Ene=   0.15825243966000E+01
 Spin= Alpha
 Occup=    0.000000
   1      0.000000000000
   2      0.000000000000
   3      0.000000000000
   4      0.000000000000
   5      0.000000000000
   6      0.000000000000
   7      0.000000000000
   8      0.000000000000
   9      0.000000000000
  10      0.000000000000
  11      0.000000000000
  12      0.000000000000
  13      0.000000000000
  14      0.000000000000
  15      0.000000000000
  16      0.000000000000
  17      0.000000000000
  18      0.000000000000
  19      0.000000000000
  20      0.000000000000
  21      0.000000000000
  22      0.000000000000
  23      0.000000000000
  24      0.000000000000
  25      0.000000000000
  26      0.000000000000
  27      0.000000000000
  28      0.000000000000
  29      0.000000000000
  30      0.000000000000
  31      0.000000000000
  32      0.000000000000
  33      0.000000000000
  34      0.000000000000
  35      0.000000000000
  36      0.000000000000
  37      0.000000000000
  38      0.000000000000
  39      0.000000000000
  40      0.000000000000
  41      0.000000000000