[Molden Format]
[Title]
generated by TRESC, real part1 of MOs of job CO3
 
[Atoms] AU
 C   1   6    0.3364484192    5.8882927452    0.3891081484
 O   2   8    2.6974300312    5.9862747024    0.4085979628
 O   3   8   -0.7714112401    7.4618585764    1.8371371576
 O   4   8   -0.6184572465    4.2284969646   -1.0743142370
[GTO]
  1 0
 s  5 1.0
     1238.4016938000        0.0059599745
      186.2900499200        0.0422621111
       42.2511763500        0.1866575214
       11.6765579300        0.4675815865
        3.5930506500        0.4422897287
 s  1 1.0
        0.4024514700        1.0000000000
 s  1 1.0
        0.1309018300        1.0000000000
 p  3 1.0
        9.4680970600        0.0570294585
        2.0103545100        0.3130471495
        0.5477100500        0.7605135301
 p  1 1.0
        0.1526861400        1.0000000000
 d  1 1.0
        0.8000000000        1.0000000000
 
  2 0
 s  5 1.0
     2266.1767785000        0.0060711540
      340.8701019100        0.0417308970
       77.3631351700        0.1850777598
       21.4796449400        0.4668774046
        6.6589433100        0.4435718061
 s  1 1.0
        0.8097597600        1.0000000000
 s  1 1.0
        0.2553077200        1.0000000000
 p  3 1.0
       17.7215043200        0.0628680198
        3.8635505400        0.3334973703
        1.0480920900        0.7412421661
 p  1 1.0
        0.2764154400        1.0000000000
 d  1 1.0
        1.2000000000        1.0000000000
 
  3 0
 s  5 1.0
     2266.1767785000        0.0060711540
      340.8701019100        0.0417308970
       77.3631351700        0.1850777598
       21.4796449400        0.4668774046
        6.6589433100        0.4435718061
 s  1 1.0
        0.8097597600        1.0000000000
 s  1 1.0
        0.2553077200        1.0000000000
 p  3 1.0
       17.7215043200        0.0628680198
        3.8635505400        0.3334973703
        1.0480920900        0.7412421661
 p  1 1.0
        0.2764154400        1.0000000000
 d  1 1.0
        1.2000000000        1.0000000000
 
  4 0
 s  5 1.0
     2266.1767785000        0.0060711540
      340.8701019100        0.0417308970
       77.3631351700        0.1850777598
       21.4796449400        0.4668774046
        6.6589433100        0.4435718061
 s  1 1.0
        0.8097597600        1.0000000000
 s  1 1.0
        0.2553077200        1.0000000000
 p  3 1.0
       17.7215043200        0.0628680198
        3.8635505400        0.3334973703
        1.0480920900        0.7412421661
 p  1 1.0
        0.2764154400        1.0000000000
 d  1 1.0
        1.2000000000        1.0000000000
 
[5D]
[7F]
[9G]
[MO]
 Ene=  -0.19807683377786E+02
 Spin= Alpha
 Occup=    1.000000
   1     -0.000312845936
   2     -0.000595099244
   3     -0.011568861751
   4      0.000138548743
   5      0.000006327395
   6      0.000001827880
   7     -0.013510380551
   8     -0.000562371929
   9     -0.000113094446
  10     -0.000956313461
  11      0.000051395262
  12     -0.000546210638
  13      0.001766404196
  14      0.000152175272
  15     -0.987816000627
  16     -0.045383639927
  17      0.034176655169
  18      0.003115232949
  19      0.000129364689
  20      0.000026058725
  21     -0.007838260328
  22     -0.000325222294
  23     -0.000064889061
  24      0.000111144482
  25      0.000009950204
  26     -0.000288824360
  27     -0.000130899658
  28     -0.000007791596
  29      0.004622070393
  30      0.001357387892
  31     -0.002029752285
  32      0.000027968079
  33     -0.000412782986
  34     -0.000372374830
  35      0.001758197848
  36      0.001561824703
  37      0.001354393148
  38      0.000023512997
  39     -0.000219241635
  40     -0.000247580574
  41      0.000026250668
  42     -0.000251046496
  43      0.004760984144
  44      0.001358918650
  45     -0.002037841827
  46     -0.000012203982
  47      0.000413023620
  48      0.000371247151
  49      0.001905389976
  50     -0.001413215755
  51     -0.001324640064
  52      0.000027668232
  53      0.000238777591
  54     -0.000225187693
  55     -0.000014894189
  56      0.000257074567
 Ene=  -0.19788515056351E+02
 Spin= Alpha
 Occup=    1.000000
   1      0.000225970368
   2      0.000847520254
   3      0.008704900782
   4     -0.000090766449
   5     -0.000243142912
   6     -0.000215996559
   7     -0.004849229696
   8     -0.013636247031
   9     -0.012113311182
  10     -0.000269647587
  11     -0.001067918129
  12     -0.001021560790
  13      0.000755416020
  14     -0.001177027184
  15      0.004255673814
  16     -0.000860013319
  17      0.002170855807
  18      0.000385130605
  19     -0.000209046478
  20     -0.000198866169
  21     -0.000965054638
  22      0.002726477853
  23      0.002477770447
  24      0.000010725849
  25     -0.000299556405
  26      0.000199035917
  27     -0.000042310251
  28     -0.000329220157
  29     -0.145986290113
  30     -0.007965957666
  31      0.010649657404
  32     -0.000577910195
  33      0.000317824897
  34      0.000303439665
  35      0.004116294303
  36     -0.000384973497
  37     -0.000470738996
  38     -0.000243524720
  39     -0.000222578359
  40     -0.000221515741
  41      0.000483171114
  42     -0.000223659750
  43      0.976961169018
  44      0.045361675902
  45     -0.036910719653
  46      0.001310780133
  47      0.002108231064
  48      0.001855570249
  49     -0.004085050003
  50     -0.005842792961
  51     -0.005129193489
  52      0.000078163341
  53      0.000031714929
  54      0.000007835414
  55     -0.000138434497
  56      0.000026682533
 Ene=  -0.19787903405165E+02
 Spin= Alpha
 Occup=    1.000000
   1      0.000307526333
   2      0.001140837184
   3      0.011781993692
   4     -0.000142460113
   5      0.000165333729
   6      0.000152736263
   7     -0.007871515409
   8      0.009597619114
   9      0.008865293434
  10     -0.000335737011
  11      0.000891635958
  12     -0.001272300673
  13      0.000793490942
  14      0.000998170165
  15      0.005587892061
  16     -0.001174421384
  17      0.002920083422
  18      0.000501058012
  19      0.000186926258
  20      0.000153864874
  21     -0.001030578342
  22     -0.002080282695
  23     -0.001842459842
  24      0.000023120706
  25      0.000198537995
  26      0.000303002978
  27     -0.000117175265
  28      0.000224245813
  29      0.976995687648
  30      0.044998964571
  31     -0.035331223909
  32      0.001399331637
  33     -0.001988128139
  34     -0.001829691663
  35     -0.003570394177
  36      0.005608029933
  37      0.005149587505
  38      0.000005129177
  39     -0.000108367942
  40     -0.000058743684
  41      0.000010430061
  42     -0.000121730040
  43      0.146211564624
  44      0.005547771073
  45     -0.000168586869
  46     -0.000169887096
  47      0.000263770702
  48      0.000242483632
  49      0.002995788574
  50     -0.001026790328
  51     -0.001013860830
  52     -0.000224775420
  53      0.000273379382
  54     -0.000203242656
  55      0.000413778872
  56      0.000324774327
 Ene=  -0.19781917588742E+02
 Spin= Alpha
 Occup=    0.000000
   1      0.000000000000
   2      0.000000000000
   3      0.000000000000
   4      0.000000000000
   5      0.000000000000
   6      0.000000000000
   7      0.000000000000
   8      0.000000000000
   9      0.000000000000
  10      0.000000000000
  11      0.000000000000
  12      0.000000000000
  13      0.000000000000
  14      0.000000000000
  15      0.000000000000
  16      0.000000000000
  17      0.000000000000
  18      0.000000000000
  19      0.000000000000
  20      0.000000000000
  21      0.000000000000
  22      0.000000000000
  23      0.000000000000
  24      0.000000000000
  25      0.000000000000
  26      0.000000000000
  27      0.000000000000
  28      0.000000000000
  29      0.000000000000
  30      0.000000000000
  31      0.000000000000
  32      0.000000000000
  33      0.000000000000
  34      0.000000000000
  35      0.000000000000
  36      0.000000000000
  37      0.000000000000
  38      0.000000000000
  39      0.000000000000
  40      0.000000000000
  41      0.000000000000
  42      0.000000000000
  43      0.000000000000
  44      0.000000000000
  45      0.000000000000
  46      0.000000000000
  47      0.000000000000
  48      0.000000000000
  49      0.000000000000
  50      0.000000000000
  51      0.000000000000
  52      0.000000000000
  53      0.000000000000
  54      0.000000000000
  55      0.000000000000
  56      0.000000000000
 Ene=  -0.19764514451000E+02
 Spin= Alpha
 Occup=    0.000000
   1      0.000000000000
   2      0.000000000000
   3      0.000000000000
   4      0.000000000000
   5      0.000000000000
   6      0.000000000000
   7      0.000000000000
   8      0.000000000000
   9      0.000000000000
  10      0.000000000000
  11      0.000000000000
  12      0.000000000000
  13      0.000000000000
  14      0.000000000000
  15      0.000000000000
  16      0.000000000000
  17      0.000000000000
  18      0.000000000000
  19      0.000000000000
  20      0.000000000000
  21      0.000000000000
  22      0.000000000000
  23      0.000000000000
  24      0.000000000000
  25      0.000000000000
  26      0.000000000000
  27      0.000000000000
  28      0.000000000000
  29      0.000000000000
  30      0.000000000000
  31      0.000000000000
  32      0.000000000000
  33      0.000000000000
  34      0.000000000000
  35      0.000000000000
  36      0.000000000000
  37      0.000000000000
  38      0.000000000000
  39      0.000000000000
  40      0.000000000000
  41      0.000000000000
  42      0.000000000000
  43      0.000000000000
  44      0.000000000000
  45      0.000000000000
  46      0.000000000000
  47      0.000000000000
  48      0.000000000000
  49      0.000000000000
  50      0.000000000000
  51      0.000000000000
  52      0.000000000000
  53      0.000000000000
  54      0.000000000000
  55      0.000000000000
  56      0.000000000000
 Ene=  -0.19763984782373E+02
 Spin= Alpha
 Occup=    0.000000
   1      0.000000000000
   2      0.000000000000
   3      0.000000000000
   4      0.000000000000
   5      0.000000000000
   6      0.000000000000
   7      0.000000000000
   8      0.000000000000
   9      0.000000000000
  10      0.000000000000
  11      0.000000000000
  12      0.000000000000
  13      0.000000000000
  14      0.000000000000
  15      0.000000000000
  16      0.000000000000
  17      0.000000000000
  18      0.000000000000
  19      0.000000000000
  20      0.000000000000
  21      0.000000000000
  22      0.000000000000
  23      0.000000000000
  24      0.000000000000
  25      0.000000000000
  26      0.000000000000
  27      0.000000000000
  28      0.000000000000
  29      0.000000000000
  30      0.000000000000
  31      0.000000000000
  32      0.000000000000
  33      0.000000000000
  34      0.000000000000
  35      0.000000000000
  36      0.000000000000
  37      0.000000000000
  38      0.000000000000
  39      0.000000000000
  40      0.000000000000
  41      0.000000000000
  42      0.000000000000
  43      0.000000000000
  44      0.000000000000
  45      0.000000000000
  46      0.000000000000
  47      0.000000000000
  48      0.000000000000
  49      0.000000000000
  50      0.000000000000
  51      0.000000000000
  52      0.000000000000
  53      0.000000000000
  54      0.000000000000
  55      0.000000000000
  56      0.000000000000
 Ene=  -0.10818189699611E+02
 Spin= Alpha
 Occup=    0.000000
   1      0.000000000000
   2      0.000000000000
   3      0.000000000000
   4      0.000000000000
   5      0.000000000000
   6      0.000000000000
   7      0.000000000000
   8      0.000000000000
   9      0.000000000000
  10      0.000000000000
  11      0.000000000000
  12      0.000000000000
  13      0.000000000000
  14      0.000000000000
  15      0.000000000000
  16      0.000000000000
  17      0.000000000000
  18      0.000000000000
  19      0.000000000000
  20      0.000000000000
  21      0.000000000000
  22      0.000000000000
  23      0.000000000000
  24      0.000000000000
  25      0.000000000000
  26      0.000000000000
  27      0.000000000000
  28      0.000000000000
  29      0.000000000000
  30      0.000000000000
  31      0.000000000000
  32      0.000000000000
  33      0.000000000000
  34      0.000000000000
  35      0.000000000000
  36      0.000000000000
  37      0.000000000000
  38      0.000000000000
  39      0.000000000000
  40      0.000000000000
  41      0.000000000000
  42      0.000000000000
  43      0.000000000000
  44      0.000000000000
  45      0.000000000000
  46      0.000000000000
  47      0.000000000000
  48      0.000000000000
  49      0.000000000000
  50      0.000000000000
  51      0.000000000000
  52      0.000000000000
  53      0.000000000000
  54      0.000000000000
  55      0.000000000000
  56      0.000000000000
 Ene=  -0.10811323576182E+02
 Spin= Alpha
 Occup=    1.000000
   1     -0.988037751688
   2     -0.049632833968
   3     -0.001450351780
   4     -0.000685976380
   5     -0.000029225519
   6     -0.000009081174
   7     -0.000581198053
   8     -0.000022624022
   9     -0.000009696162
  10      0.001090459405
  11      0.000131562909
  12     -0.003822501574
  13     -0.001075475562
  14     -0.000062719375
  15      0.000099638377
  16     -0.000521425389
  17      0.009240228682
  18     -0.000995640545
  19     -0.000040565141
  20     -0.000007777129
  21     -0.007060637800
  22     -0.000295992327
  23     -0.000059740122
  24     -0.000688206666
  25      0.000019939960
  26     -0.000006012985
  27      0.001189524783
  28      0.000098805411
  29      0.000060315772
  30     -0.000763875007
  31      0.009054359034
  32      0.000539230362
  33     -0.000630641361
  34     -0.000583453710
  35      0.003244891337
  36     -0.004830775455
  37     -0.004439345534
  38      0.000051029990
  39     -0.000847021589
  40      0.001151982978
  41     -0.000277670483
  42     -0.000918781157
  43      0.000059333615
  44     -0.000772828890
  45      0.009052858389
  46      0.000475593862
  47      0.000671809122
  48      0.000589386410
  49      0.002778142721
  50      0.005079116312
  51      0.004483869174
  52      0.000070638771
  53      0.000745533816
  54      0.001235967618
  55     -0.000436991871
  56      0.000847094715
 Ene=  -0.13587140045857E+01
 Spin= Alpha
 Occup=    1.000000
   1     -0.176338666738
   2      0.341251939043
   3      0.007359157052
   4      0.060625032584
   5      0.002701611405
   6      0.000733539626
   7      0.003661401832
   8      0.000195277612
   9      0.000065622964
  10     -0.008868583337
  11     -0.000651061689
  12      0.021189237917
  13      0.010836970523
  14      0.000750429674
  15     -0.183393861419
  16      0.369442740482
  17      0.190845070406
  18     -0.122070481801
  19     -0.005011280197
  20     -0.000951056299
  21     -0.030396713117
  22     -0.001267585962
  23     -0.000256022970
  24     -0.005455489050
  25     -0.000158411690
  26      0.006981030730
  27      0.007944371596
  28      0.000589135595
  29     -0.120050774933
  30      0.240123350116
  31      0.127876960404
  32      0.046311307251
  33     -0.051914020318
  34     -0.048048432014
  35      0.012586516505
  36     -0.013905999902
  37     -0.012876270578
  38      0.001346055852
  39     -0.004780110131
  40      0.002733752738
  41     -0.002604295845
  42     -0.005386067583
  43     -0.119886232456
  44      0.239822957654
  45      0.127948101033
  46      0.041037733766
  47      0.055368877859
  48      0.048560047534
  49      0.011234827472
  50      0.014919601104
  51      0.013079416300
  52      0.001482291000
  53      0.004440705862
  54      0.003147896639
  55     -0.003521425037
  56      0.004835007711
 Ene=  -0.13098116899398E+01
 Spin= Alpha
 Occup=    0.000000
   1      0.000000000000
   2      0.000000000000
   3      0.000000000000
   4      0.000000000000
   5      0.000000000000
   6      0.000000000000
   7      0.000000000000
   8      0.000000000000
   9      0.000000000000
  10      0.000000000000
  11      0.000000000000
  12      0.000000000000
  13      0.000000000000
  14      0.000000000000
  15      0.000000000000
  16      0.000000000000
  17      0.000000000000
  18      0.000000000000
  19      0.000000000000
  20      0.000000000000
  21      0.000000000000
  22      0.000000000000
  23      0.000000000000
  24      0.000000000000
  25      0.000000000000
  26      0.000000000000
  27      0.000000000000
  28      0.000000000000
  29      0.000000000000
  30      0.000000000000
  31      0.000000000000
  32      0.000000000000
  33      0.000000000000
  34      0.000000000000
  35      0.000000000000
  36      0.000000000000
  37      0.000000000000
  38      0.000000000000
  39      0.000000000000
  40      0.000000000000
  41      0.000000000000
  42      0.000000000000
  43      0.000000000000
  44      0.000000000000
  45      0.000000000000
  46      0.000000000000
  47      0.000000000000
  48      0.000000000000
  49      0.000000000000
  50      0.000000000000
  51      0.000000000000
  52      0.000000000000
  53      0.000000000000
  54      0.000000000000
  55      0.000000000000
  56      0.000000000000
 Ene=  -0.12253097096528E+01
 Spin= Alpha
 Occup=    1.000000
   1     -0.000679051432
   2      0.001350672320
   3      0.000144510637
   4      0.004309329952
   5     -0.194787711544
   6     -0.175249863849
   7      0.000414699427
   8     -0.010326685718
   9     -0.009296107112
  10      0.000474091935
  11      0.016903877854
  12      0.001275908497
  13     -0.002236224521
  14      0.018722271201
  15      0.004304368011
  16     -0.008755293890
  17     -0.005241638479
  18      0.003417637019
  19     -0.030491935973
  20     -0.027512718554
  21      0.001071555679
  22     -0.009950036939
  23     -0.008976445848
  24      0.000092045271
  25      0.003027138220
  26     -0.000017257123
  27     -0.000351835310
  28      0.003347222258
  29      0.198038001639
  30     -0.402384840330
  31     -0.232102086943
  32     -0.059581201067
  33      0.057925000492
  34      0.053862936085
  35     -0.018386588176
  36      0.016433873862
  37      0.015328047209
  38     -0.001530630164
  39      0.005151513445
  40      0.000502219972
  41      0.002211135340
  42      0.005885881003
  43     -0.204438747574
  44      0.415481060772
  45      0.240001356671
  46      0.054132579395
  47      0.064856408588
  48      0.056684263835
  49      0.016844311773
  50      0.018658756394
  51      0.016267186933
  52      0.001815014747
  53      0.005148244210
  54      0.000008224471
  55     -0.003467023054
  56      0.005517405926
 Ene=  -0.12171324034495E+01
 Spin= Alpha
 Occup=    1.000000
   1      0.033299441340
   2     -0.066968191423
   3     -0.008487731597
   4      0.240713698623
   5      0.005613385291
   6     -0.002044155338
   7      0.006292584452
   8     -0.000024329051
   9     -0.000209609737
  10     -0.013013748730
  11      0.001637741450
  12     -0.021154198097
  13      0.026912327916
  14      0.002791512769
  15     -0.207931917635
  16      0.423885278911
  17      0.254394443178
  18     -0.089616155812
  19     -0.004413379602
  20     -0.001376562581
  21     -0.027118945983
  22     -0.001362647550
  23     -0.000443937891
  24     -0.002181060519
  25     -0.000232468274
  26      0.008118638914
  27      0.002046109061
  28      0.000162921313
  29      0.148506101894
  30     -0.302345675638
  31     -0.177571447550
  32     -0.013676616612
  33      0.054375009721
  34      0.049306257092
  35     -0.003069153301
  36      0.016647952089
  37      0.015064973201
  38     -0.002686300513
  39      0.001894440705
  40     -0.001205584846
  41      0.004785674266
  42      0.002370897899
  43      0.139902842696
  44     -0.284883105292
  45     -0.167671533890
  46     -0.006159951148
  47     -0.052507777655
  48     -0.047009323898
  49     -0.000812420883
  50     -0.016106001047
  51     -0.014449205898
  52     -0.002679337466
  53     -0.001426219541
  54     -0.001346080218
  55      0.005004910248
  56     -0.001315505798
 Ene=  -0.11569026360152E+01
 Spin= Alpha
 Occup=    0.000000
   1      0.000000000000
   2      0.000000000000
   3      0.000000000000
   4      0.000000000000
   5      0.000000000000
   6      0.000000000000
   7      0.000000000000
   8      0.000000000000
   9      0.000000000000
  10      0.000000000000
  11      0.000000000000
  12      0.000000000000
  13      0.000000000000
  14      0.000000000000
  15      0.000000000000
  16      0.000000000000
  17      0.000000000000
  18      0.000000000000
  19      0.000000000000
  20      0.000000000000
  21      0.000000000000
  22      0.000000000000
  23      0.000000000000
  24      0.000000000000
  25      0.000000000000
  26      0.000000000000
  27      0.000000000000
  28      0.000000000000
  29      0.000000000000
  30      0.000000000000
  31      0.000000000000
  32      0.000000000000
  33      0.000000000000
  34      0.000000000000
  35      0.000000000000
  36      0.000000000000
  37      0.000000000000
  38      0.000000000000
  39      0.000000000000
  40      0.000000000000
  41      0.000000000000
  42      0.000000000000
  43      0.000000000000
  44      0.000000000000
  45      0.000000000000
  46      0.000000000000
  47      0.000000000000
  48      0.000000000000
  49      0.000000000000
  50      0.000000000000
  51      0.000000000000
  52      0.000000000000
  53      0.000000000000
  54      0.000000000000
  55      0.000000000000
  56      0.000000000000
 Ene=  -0.11462343940290E+01
 Spin= Alpha
 Occup=    0.000000
   1      0.000000000000
   2      0.000000000000
   3      0.000000000000
   4      0.000000000000
   5      0.000000000000
   6      0.000000000000
   7      0.000000000000
   8      0.000000000000
   9      0.000000000000
  10      0.000000000000
  11      0.000000000000
  12      0.000000000000
  13      0.000000000000
  14      0.000000000000
  15      0.000000000000
  16      0.000000000000
  17      0.000000000000
  18      0.000000000000
  19      0.000000000000
  20      0.000000000000
  21      0.000000000000
  22      0.000000000000
  23      0.000000000000
  24      0.000000000000
  25      0.000000000000
  26      0.000000000000
  27      0.000000000000
  28      0.000000000000
  29      0.000000000000
  30      0.000000000000
  31      0.000000000000
  32      0.000000000000
  33      0.000000000000
  34      0.000000000000
  35      0.000000000000
  36      0.000000000000
  37      0.000000000000
  38      0.000000000000
  39      0.000000000000
  40      0.000000000000
  41      0.000000000000
  42      0.000000000000
  43      0.000000000000
  44      0.000000000000
  45      0.000000000000
  46      0.000000000000
  47      0.000000000000
  48      0.000000000000
  49      0.000000000000
  50      0.000000000000
  51      0.000000000000
  52      0.000000000000
  53      0.000000000000
  54      0.000000000000
  55      0.000000000000
  56      0.000000000000
 Ene=  -0.70958050583682E+00
 Spin= Alpha
 Occup=    1.000000
   1      0.168343790684
   2     -0.408865373713
   3     -0.025004134815
   4     -0.076358160253
   5     -0.002418139667
   6     -0.000029351170
   7     -0.002749979966
   8      0.000033271888
   9      0.000126204604
  10      0.003763936737
  11      0.000340301520
  12     -0.010686098764
  13     -0.004240726476
  14     -0.000285043000
  15     -0.117026502570
  16      0.246812848913
  17      0.258264809560
  18      0.352035472567
  19      0.015078457346
  20      0.003280765692
  21      0.171819717518
  22      0.007393083716
  23      0.001621836087
  24      0.009884629769
  25     -0.000613455108
  26      0.006711898527
  27     -0.018482393670
  28     -0.001639012211
  29     -0.088906907787
  30      0.187081068885
  31      0.187627317337
  32     -0.124425308120
  33      0.136781320818
  34      0.126627158585
  35     -0.061336848802
  36      0.067429625510
  37      0.062412211867
  38      0.000680308549
  39      0.006295469766
  40     -0.009890766571
  41      0.000514558702
  42      0.006687024078
  43     -0.089195715950
  44      0.187700148485
  45      0.188366174824
  46     -0.111975583743
  47     -0.147303622493
  48     -0.129150544096
  49     -0.055283627207
  50     -0.072633442535
  51     -0.063692520232
  52      0.000567256339
  53     -0.005504232217
  54     -0.010537523585
  55      0.001647450698
  56     -0.006401811361
 Ene=  -0.67459314880544E+00
 Spin= Alpha
 Occup=   -0.000000
   1      0.000000000000
   2      0.000000000000
   3      0.000000000000
   4      0.000000000000
   5      0.000000000000
   6      0.000000000000
   7      0.000000000000
   8      0.000000000000
   9      0.000000000000
  10      0.000000000000
  11      0.000000000000
  12      0.000000000000
  13      0.000000000000
  14      0.000000000000
  15      0.000000000000
  16      0.000000000000
  17      0.000000000000
  18      0.000000000000
  19      0.000000000000
  20      0.000000000000
  21      0.000000000000
  22      0.000000000000
  23      0.000000000000
  24      0.000000000000
  25      0.000000000000
  26      0.000000000000
  27      0.000000000000
  28      0.000000000000
  29      0.000000000000
  30      0.000000000000
  31      0.000000000000
  32      0.000000000000
  33      0.000000000000
  34      0.000000000000
  35      0.000000000000
  36      0.000000000000
  37      0.000000000000
  38      0.000000000000
  39      0.000000000000
  40      0.000000000000
  41      0.000000000000
  42      0.000000000000
  43      0.000000000000
  44      0.000000000000
  45      0.000000000000
  46      0.000000000000
  47      0.000000000000
  48      0.000000000000
  49      0.000000000000
  50      0.000000000000
  51      0.000000000000
  52      0.000000000000
  53      0.000000000000
  54      0.000000000000
  55      0.000000000000
  56      0.000000000000
 Ene=  -0.67199113364294E+00
 Spin= Alpha
 Occup=    1.000000
   1      0.000024926828
   2      0.000008104185
   3     -0.000404822931
   4     -0.007988171189
   5      0.224441145807
   6      0.201959563279
   7     -0.001155697892
   8      0.029588282610
   9      0.026612097135
  10      0.000163392894
  11      0.013092329858
  12      0.000639572712
  13     -0.001255989680
  14      0.014520544693
  15      0.000789690087
  16     -0.001641046795
  17     -0.001947994439
  18     -0.017633655928
  19      0.291486574040
  20      0.262517264714
  21     -0.009962625046
  22      0.169455459038
  23      0.152606653249
  24     -0.000258461306
  25     -0.012364774544
  26     -0.000670503466
  27      0.001390284461
  28     -0.013705620096
  29      0.082375303798
  30     -0.171889842713
  31     -0.197099961631
  32      0.220914779950
  33     -0.128416130217
  34     -0.122096850464
  35      0.120056341239
  36     -0.058890648403
  37     -0.056553553326
  38     -0.002715165929
  39     -0.008345015033
  40      0.009404873238
  41      0.003254280489
  42     -0.008732546245
  43     -0.082840473027
  44      0.172844054662
  45      0.198344938114
  46     -0.206278423427
  47     -0.148517965602
  48     -0.127427172030
  49     -0.113018777348
  50     -0.069854963606
  51     -0.059466902301
  52      0.002489697730
  53     -0.007616404733
  54     -0.010375943785
  55     -0.001565742717
  56     -0.008961889775
 Ene=  -0.65447511202546E+00
 Spin= Alpha
 Occup=    1.000000
   1      0.000098580572
   2     -0.000247021727
   3     -0.000052041022
   4     -0.005906287860
   5      0.220206615859
   6     -0.244943824275
   7     -0.002757396983
   8      0.091084089043
   9     -0.101309178944
  10     -0.000020834506
  11     -0.003114611514
  12     -0.000091450773
  13     -0.000167872813
  14      0.002794843495
  15      0.000283804692
  16     -0.000592592229
  17     -0.000747246163
  18     -0.007265753844
  19      0.187262988584
  20     -0.208440699672
  21     -0.004031683424
  22      0.105934944633
  23     -0.117913071688
  24      0.000169823644
  25      0.013652492049
  26      0.000453618944
  27      0.000959190057
  28     -0.012245371104
  29     -0.000237028157
  30      0.000483162128
  31      0.000628126499
  32     -0.006907228681
  33      0.218826516414
  34     -0.241598854112
  35     -0.003836939212
  36      0.122811229474
  37     -0.135666806681
  38      0.014830378689
  39     -0.006849886450
  40      0.001530817128
  41      0.008182526664
  42      0.006671663271
  43     -0.000209241959
  44      0.000425210456
  45      0.000560384335
  46     -0.006795905488
  47      0.218294858290
  48     -0.244468021628
  49     -0.003781728332
  50      0.122684683122
  51     -0.137323305947
  52     -0.015059727078
  53     -0.006468346111
  54     -0.002116388528
  55     -0.009020448360
  56      0.005299201306
 Ene=  -0.64950344909017E+00
 Spin= Alpha
 Occup=    1.000000
   1     -0.042956240384
   2      0.103642376870
   3      0.025641937115
   4     -0.349854636545
   5     -0.011950906800
   6     -0.002119794566
   7     -0.055395584477
   8     -0.001571569359
   9     -0.000488151843
  10      0.002087765138
  11     -0.000133759179
  12      0.003921121127
  13     -0.004441556569
  14     -0.000249761642
  15     -0.072637671718
  16      0.150607001987
  17      0.197139484768
  18      0.328011791419
  19      0.016601412986
  20      0.003960014999
  21      0.163759604054
  22      0.008502321407
  23      0.002069938222
  24      0.007644314908
  25     -0.000399854867
  26      0.002951538558
  27     -0.013811076935
  28     -0.001332707448
  29      0.063354411101
  30     -0.130512275069
  31     -0.162151861555
  32     -0.056561974426
  33     -0.221015240722
  34     -0.198700631753
  35     -0.042539130812
  36     -0.116452600681
  37     -0.104371457125
  38      0.003312103272
  39     -0.001134675728
  40      0.014701336003
  41     -0.008651411889