 Entering Link 1 = D:\Gaussian16W\G16W\l1.exe PID=     10444.
  
 Copyright (c) 1988,1990,1992,1993,1995,1998,2003,2009,2016,
            Gaussian, Inc.  All Rights Reserved.
  
 This is part of the Gaussian(R) 16 program.  It is based on
 the Gaussian(R) 09 system (copyright 2009, Gaussian, Inc.),
 the Gaussian(R) 03 system (copyright 2003, Gaussian, Inc.),
 the Gaussian(R) 98 system (copyright 1998, Gaussian, Inc.),
 the Gaussian(R) 94 system (copyright 1995, Gaussian, Inc.),
 the Gaussian 92(TM) system (copyright 1992, Gaussian, Inc.),
 the Gaussian 90(TM) system (copyright 1990, Gaussian, Inc.),
 the Gaussian 88(TM) system (copyright 1988, Gaussian, Inc.),
 the Gaussian 86(TM) system (copyright 1986, Carnegie Mellon
 University), and the Gaussian 82(TM) system (copyright 1983,
 Carnegie Mellon University). Gaussian is a federally registered
 trademark of Gaussian, Inc.
  
 This software contains proprietary and confidential information,
 including trade secrets, belonging to Gaussian, Inc.
  
 This software is provided under written license and may be
 used, copied, transmitted, or stored only in accord with that
 written license.
  
 The following legend is applicable only to US Government
 contracts under FAR:
  
                    RESTRICTED RIGHTS LEGEND
  
 Use, reproduction and disclosure by the US Government is
 subject to restrictions as set forth in subparagraphs (a)
 and (c) of the Commercial Computer Software - Restricted
 Rights clause in FAR 52.227-19.
  
 Gaussian, Inc.
 340 Quinnipiac St., Bldg. 40, Wallingford CT 06492
  
  
 ---------------------------------------------------------------
 Warning -- This program may not be used in any manner that
 competes with the business of Gaussian, Inc. or will provide
 assistance to any competitor of Gaussian, Inc.  The licensee
 of this program is prohibited from giving any competitor of
 Gaussian, Inc. access to this program.  By using this program,
 the user acknowledges that Gaussian, Inc. is engaged in the
 business of creating and licensing software in the field of
 computational chemistry and represents and warrants to the
 licensee that it is not a competitor of Gaussian, Inc. and that
 it will not use this program in any manner prohibited above.
 ---------------------------------------------------------------
  

 Cite this work as:
 Gaussian 16, Revision A.03,
 M. J. Frisch, G. W. Trucks, H. B. Schlegel, G. E. Scuseria, 
 M. A. Robb, J. R. Cheeseman, G. Scalmani, V. Barone, 
 G. A. Petersson, H. Nakatsuji, X. Li, M. Caricato, A. V. Marenich, 
 J. Bloino, B. G. Janesko, R. Gomperts, B. Mennucci, H. P. Hratchian, 
 J. V. Ortiz, A. F. Izmaylov, J. L. Sonnenberg, D. Williams-Young, 
 F. Ding, F. Lipparini, F. Egidi, J. Goings, B. Peng, A. Petrone, 
 T. Henderson, D. Ranasinghe, V. G. Zakrzewski, J. Gao, N. Rega, 
 G. Zheng, W. Liang, M. Hada, M. Ehara, K. Toyota, R. Fukuda, 
 J. Hasegawa, M. Ishida, T. Nakajima, Y. Honda, O. Kitao, H. Nakai, 
 T. Vreven, K. Throssell, J. A. Montgomery, Jr., J. E. Peralta, 
 F. Ogliaro, M. J. Bearpark, J. J. Heyd, E. N. Brothers, K. N. Kudin, 
 V. N. Staroverov, T. A. Keith, R. Kobayashi, J. Normand, 
 K. Raghavachari, A. P. Rendell, J. C. Burant, S. S. Iyengar, 
 J. Tomasi, M. Cossi, J. M. Millam, M. Klene, C. Adamo, R. Cammi, 
 J. W. Ochterski, R. L. Martin, K. Morokuma, O. Farkas, 
 J. B. Foresman, and D. J. Fox, Gaussian, Inc., Wallingford CT, 2016.
 
 ******************************************
 Gaussian 16:  EM64W-G16RevA.03 17-Dec-2016
                01-Feb-2025 
 ******************************************
 %mem=1500MB
 %nprocshared=4
 Will use up to    4 processors via shared memory.
 %chk=E:\TRESC\examples\FeO+\Gaussian\Scratch\FeO+.chk
 --------------------------------------------------------
 # uhf/gen nosymm iop(3/32=2,3/27=9) int=nobasistransform
 --------------------------------------------------------
 1/38=1,172=1/1;
 2/12=2,15=1,17=6,18=5,40=1/2;
 3/5=7,11=2,25=1,27=9,30=1,32=2,60=-1,116=2/1,2,3;
 4//1;
 5/5=2,38=5/2;
 6/7=2,8=2,9=2,10=2,28=1/1;
 99/5=1,9=1/99;
 ----
 FeO+
 ----
 Symbolic Z-matrix:
 Charge =  1 Multiplicity = 6
 Fe                    6.75742   0.43591  -1.2046 
 O                     8.57742   0.43591  -1.2046 
 
                          Input orientation:                          
 ---------------------------------------------------------------------
 Center     Atomic      Atomic             Coordinates (Angstroms)
 Number     Number       Type             X           Y           Z
 ---------------------------------------------------------------------
      1         26           0        6.757421    0.435905   -1.204599
      2          8           0        8.577421    0.435905   -1.204599
 ---------------------------------------------------------------------
 Symmetry turned off by external request.
 Stoichiometry    FeO(1+,6)
 Framework group  C*V[C*(OFe)]
 Deg. of freedom     1
 Full point group                 C*V     NOp   4
 Rotational constants (GHZ):           0.0000000          12.2664390          12.2664390
 General basis read from cards:  (5D, 7F)
    55 basis functions,   106 primitive gaussians,    61 cartesian basis functions
    19 alpha electrons       14 beta electrons
       nuclear repulsion energy        60.4773955337 Hartrees.
 NAtoms=    2 NActive=    2 NUniq=    2 SFac= 1.00D+00 NAtFMM=   60 NAOKFM=F Big=F
 Integral buffers will be    131072 words long.
 Raffenetti 2 integral format.
 Two-electron integral symmetry is turned off.
 One-electron integrals computed using PRISM.
 NBasis=    55 RedAO= F EigKep=  0.00D+00  NBF=    55
 NBsUse=    55 1.00D-04 EigRej=  0.00D+00 NBFU=    55
 GSVD:  LWork=       -2769 too small for GESVD, short by       15254 words or       15254 for optimal perf.
 ExpMin= 3.37D-02 ExpMax= 6.09D+04 ExpMxC= 9.15D+03 IAcc=3 IRadAn=         5 AccDes= 0.00D+00
 Harris functional with IExCor=  205 and IRadAn=       5 diagonalized for initial guess.
 HarFok:  IExCor=  205 AccDes= 0.00D+00 IRadAn=         5 IDoV= 1 UseB2=F ITyADJ=14
 ICtDFT=  3500011 ScaDFX=  1.000000  1.000000  1.000000  1.000000
 FoFCou: FMM=F IPFlag=           0 FMFlag=      100000 FMFlg1=           0
         NFxFlg=           0 DoJE=T BraDBF=F KetDBF=T FulRan=T
         wScrn=  0.000000 ICntrl=       500 IOpCl=  0 I1Cent=   200000004 NGrid=           0
         NMat0=    1 NMatS0=      1 NMatT0=    0 NMatD0=    1 NMtDS0=    0 NMtDT0=    0
 Symmetry not used in FoFCou.
 Initial guess <Sx>= 0.0000 <Sy>= 0.0000 <Sz>= 2.5000 <S**2>= 8.7500 S= 2.5000
 Keep R1 and R2 ints in memory in canonical form, NReq=4332818.
 Requested convergence on RMS density matrix=1.00D-08 within 128 cycles.
 Requested convergence on MAX density matrix=1.00D-06.
 Requested convergence on             energy=1.00D-06.
 No special actions if energy rises.
 GSVD:  LWork=       -3465 too small for GESVD, short by       15950 words or       15950 for optimal perf.
 EnCoef did   100 forward-backward iterations
 Rare condition: small coef for last iteration:  0.000D+00
 SCF Done:  E(UHF) =  -1334.65219424     A.U. after   28 cycles
            NFock= 28  Conv=0.99D-08     -V/T= 1.9964
 <Sx>= 0.0000 <Sy>= 0.0000 <Sz>= 2.5000 <S**2>= 8.8101 S= 2.5100
 <L.S>= 0.000000000000E+00
 Annihilation of the first spin contaminant:
 S**2 before annihilation     8.8101,   after     8.7508

 **********************************************************************

            Population analysis using the SCF density.

 **********************************************************************

 Alpha  occ. eigenvalues -- -260.66706 -31.96637 -27.60877 -27.60877 -27.58151
 Alpha  occ. eigenvalues --  -20.89984  -4.43998  -3.09663  -3.09663  -3.04408
 Alpha  occ. eigenvalues --   -1.59894  -0.92217  -0.92217  -0.89398  -0.85377
 Alpha  occ. eigenvalues --   -0.85377  -0.77988  -0.77988  -0.74254
 Alpha virt. eigenvalues --   -0.20914  -0.03997  -0.03997  -0.02087   0.10141
 Alpha virt. eigenvalues --    0.85857   0.85857   0.88007   0.93873   0.93873
 Alpha virt. eigenvalues --    1.08827   1.08827   1.17590   1.32347   1.44729
 Alpha virt. eigenvalues --    1.44729   1.52080   2.08076   2.59543   2.59543
 Alpha virt. eigenvalues --    2.72053   2.72053   3.07004   4.15257   4.15257
 Alpha virt. eigenvalues --    4.20708   4.20708   4.22288   4.22288   4.33635
 Alpha virt. eigenvalues --    8.60840   8.60840   8.80651  15.34009  55.87074
 Alpha virt. eigenvalues --  682.31479
  Beta  occ. eigenvalues -- -260.66685 -31.86235 -27.49966 -27.49966 -27.49744
  Beta  occ. eigenvalues --  -20.82308  -4.14254  -2.74640  -2.70733  -2.70733
  Beta  occ. eigenvalues --   -1.30785  -0.76508  -0.58018  -0.58018
  Beta virt. eigenvalues --   -0.19582  -0.14161  -0.14161  -0.00776   0.01993
  Beta virt. eigenvalues --    0.01993   0.02732   0.07409   0.07409   0.26408
  Beta virt. eigenvalues --    0.95514   1.02296   1.02296   1.15631   1.15631
  Beta virt. eigenvalues --    1.20764   1.20764   1.25667   1.47166   1.52825
  Beta virt. eigenvalues --    1.52825   1.59197   2.16819   2.80806   2.80806
  Beta virt. eigenvalues --    2.83750   2.83750   3.16618   4.34971   4.34971
  Beta virt. eigenvalues --    4.39525   4.39525   4.41363   4.41363   4.52746
  Beta virt. eigenvalues --    8.71291   8.71291   8.89243  15.42828  55.91431
  Beta virt. eigenvalues --  682.31658
          Condensed to atoms (all electrons):
               1          2
     1  Fe  24.727154   0.153125
     2  O    0.153125   7.966597
          Atomic-Atomic Spin Densities.
               1          2
     1  Fe   3.377727  -0.115245
     2  O   -0.115245   1.852763
 Mulliken charges and spin densities:
               1          2
     1  Fe   1.119721   3.262482
     2  O   -0.119721   1.737518
 Sum of Mulliken charges =   1.00000   5.00000
 Mulliken charges and spin densities with hydrogens summed into heavy atoms:
               1          2
     1  Fe   1.119721   3.262482
     2  O   -0.119721   1.737518
 Electronic spatial extent (au):  <R**2>=           6423.5742
 Charge=              1.0000 electrons
 Dipole moment (field-independent basis, Debye):
    X=             30.5455    Y=              2.0937    Z=             -5.7859  Tot=             31.1591
 Quadrupole moment (field-independent basis, Debye-Ang):
   XX=            176.8310   YY=            -12.6216   ZZ=             -6.5645
   XY=             13.3149   XZ=            -36.7951   YZ=             -2.5221
 Traceless Quadrupole moment (field-independent basis, Debye-Ang):
   XX=            124.2827   YY=            -65.1699   ZZ=            -59.1128
   XY=             13.3149   XZ=            -36.7951   YZ=             -2.5221
 Octapole moment (field-independent basis, Debye-Ang**2):
  XXX=            848.0591  YYY=            -17.3011  ZZZ=             40.5143  XYY=            -94.9543
  XXY=             77.0816  XXZ=           -213.0105  XZZ=            -56.4350  YZZ=             -2.8615
  YYZ=             15.2039  XYZ=            -16.0392
 Hexadecapole moment (field-independent basis, Debye-Ang**3):
 XXXX=           2036.1202 YYYY=            -23.0573 ZZZZ=           -115.5211 XXXY=            369.6735
 XXXZ=          -1021.5716 YYYX=           -129.2332 YYYZ=             20.8409 ZZZX=            310.7284
 ZZZY=             17.6604 XXYY=           -729.0963 XXZZ=           -506.1041 YYZZ=            -23.4865
 XXYZ=            -92.8524 YYXZ=            114.3819 ZZXY=            -24.6003
 N-N= 6.047739553371D+01 E-N=-3.300007959000D+03  KE= 1.339491430583D+03
                          Isotropic Fermi Contact Couplings
        Atom                 a.u.       MegaHertz       Gauss      10(-4) cm-1
     1  Fe(57)            -0.93398     -27.09299      -9.66745      -9.03725
     2  O(17)              0.90677    -109.93596     -39.22788     -36.67069
 --------------------------------------------------------
       Center         ----  Spin Dipole Couplings  ----
                      3XX-RR        3YY-RR        3ZZ-RR
 --------------------------------------------------------
     1   Atom       -1.441376      0.720688      0.720688
     2   Atom       -3.191461      1.595731      1.595731
 --------------------------------------------------------
                        XY            XZ            YZ
 --------------------------------------------------------
     1   Atom        0.000000      0.000000      0.000000
     2   Atom        0.000000      0.000000      0.000000
 --------------------------------------------------------


 ---------------------------------------------------------------------------------
              Anisotropic Spin Dipole Couplings in Principal Axis System
 ---------------------------------------------------------------------------------

       Atom             a.u.   MegaHertz   Gauss  10(-4) cm-1        Axes

              Baa    -1.4414   -24.954    -8.904    -8.324  1.0000  0.0000  0.0000
     1 Fe(57) Bbb     0.7207    12.477     4.452     4.162  0.0000  0.9983 -0.0579
              Bcc     0.7207    12.477     4.452     4.162  0.0000  0.0579  0.9983
 
              Baa    -3.1915   230.932    82.402    77.031  1.0000  0.0000  0.0000
     2 O(17)  Bbb     1.5957  -115.466   -41.201   -38.515  0.0000  0.0602  0.9982
              Bcc     1.5957  -115.466   -41.201   -38.515  0.0000  0.9982 -0.0602
 

 ---------------------------------------------------------------------------------


 Test job not archived.
 1|1|UNPC-BATCOMPUTER|SP|UHF|Gen|Fe1O1(1+,6)|DELL|01-Feb-2025|0||# uhf/
 gen nosymm iop(3/32=2,3/27=9) int=nobasistransform||FeO+||1,6|Fe,0,6.7
 574207,0.43590531,-1.20459949|O,0,8.5774207,0.43590531,-1.20459949||Ve
 rsion=EM64W-G16RevA.03|HF=-1334.6521942|S2=8.810055|S2-1=0.|S2A=8.7508
 23|RMSD=9.894e-009|Dipole=-1.5614032,0.,0.|Quadrupole=92.4011375,-48.4
 522081,-43.9489294,9.8993307,-27.3562364,-1.8751351|PG=C*V [C*(O1Fe1)]
 ||@


 WHEN A MATHEMATICIAN ENGAGED IN INVESTIGATING
 PHYSICAL ACTIONS AND RESULTS HAS ARRIVED AT HIS
 CONCLUSIONS, MAY THEY NOT BE EXPRESSED IN COMMON
 LANGUAGE AS FULLY, CLEARLY, AND DEFINITELY AS IN
 MATHEMATICAL FORMULAE?
           - LETTER FROM M. FARADAY TO J.C. MAXWELL, 1857.
 Job cpu time:       0 days  0 hours  0 minutes  5.0 seconds.
 Elapsed time:       0 days  0 hours  0 minutes  3.5 seconds.
 File lengths (MBytes):  RWF=      6 Int=      0 D2E=      0 Chk=      1 Scr=      1
 Normal termination of Gaussian 16 at Sat Feb 01 10:00:18 2025.
