[Molden Format]
[Title]
generated by TRESC, real part2 of MOs of job Ni0-C2H4
 
[Atoms] AU
Ni   1  28    2.0327243480    6.6651129323   -0.4637853482
 C   2   6    4.4866582262    4.9116344944    1.3008835560
 C   3   6    4.8771137450    4.8741236186   -1.3947805326
 H   4   1    5.7310700770    6.0706468704    2.4997637439
 H   5   1    3.8369470533    3.1858198160    2.2645095603
 H   6   1    4.5308414173    3.1179949920   -2.4558991994
 H   7   1    6.4130479072    6.0088908466   -2.2212746715
[GTO]
  1 0
 s  6 1.0
    71074.8032110000        0.0049184150
    10672.0209410000        0.0200173975
     2428.1389007000        0.0784715325
      685.5359514800        0.2482002663
      223.1007286300        0.4665280195
       76.8420140400        0.3374151926
 s  1 1.0
      148.7112201600        1.0000000000
 s  1 1.0
       17.4591549900        1.0000000000
 s  1 1.0
        7.1625280700        1.0000000000
 s  1 1.0
       12.5561371300        1.0000000000
 s  1 1.0
        2.0735740500        1.0000000000
 s  1 1.0
        0.8538264100        1.0000000000
 s  1 1.0
        0.1053676600        1.0000000000
 s  1 1.0
        0.0381340900        1.0000000000
 p  5 1.0
      916.7360866200        0.0107030171
      216.0613991300        0.0711467350
       68.3839148200        0.2646675976
       24.5938439500        0.5093159720
        9.1392960200        0.3283291628
 p  1 1.0
        4.7193371700        1.0000000000
 p  1 1.0
        1.8161849200        1.0000000000
 p  1 1.0
        0.6784075100        1.0000000000
 d  4 1.0
       47.0938321100        0.0346401353
       13.1464639700        0.1833736831
        4.4170548900        0.4455621030
        1.4771565100        0.5627236040
 d  1 1.0
        0.4373592200        1.0000000000
 p  1 1.0
        0.1465880000        1.0000000000
 f  1 1.0
        2.1740000000        1.0000000000
 
  2 0
 s  5 1.0
     1238.4016938000        0.0059599745
      186.2900499200        0.0422621111
       42.2511763500        0.1866575214
       11.6765579300        0.4675815865
        3.5930506500        0.4422897287
 s  1 1.0
        0.4024514700        1.0000000000
 s  1 1.0
        0.1309018300        1.0000000000
 p  3 1.0
        9.4680970600        0.0570294585
        2.0103545100        0.3130471495
        0.5477100500        0.7605135301
 p  1 1.0
        0.1526861400        1.0000000000
 d  1 1.0
        0.8000000000        1.0000000000
 
  3 0
 s  5 1.0
     1238.4016938000        0.0059599745
      186.2900499200        0.0422621111
       42.2511763500        0.1866575214
       11.6765579300        0.4675815865
        3.5930506500        0.4422897287
 s  1 1.0
        0.4024514700        1.0000000000
 s  1 1.0
        0.1309018300        1.0000000000
 p  3 1.0
        9.4680970600        0.0570294585
        2.0103545100        0.3130471495
        0.5477100500        0.7605135301
 p  1 1.0
        0.1526861400        1.0000000000
 d  1 1.0
        0.8000000000        1.0000000000
 
  4 0
 s  3 1.0
       13.0107010000        0.0391282527
        1.9622572000        0.2855840539
        0.4445379600        0.7689908602
 s  1 1.0
        0.1219496200        1.0000000000
 p  1 1.0
        0.8000000000        1.0000000000
 
  5 0
 s  3 1.0
       13.0107010000        0.0391282527
        1.9622572000        0.2855840539
        0.4445379600        0.7689908602
 s  1 1.0
        0.1219496200        1.0000000000
 p  1 1.0
        0.8000000000        1.0000000000
 
  6 0
 s  3 1.0
       13.0107010000        0.0391282527
        1.9622572000        0.2855840539
        0.4445379600        0.7689908602
 s  1 1.0
        0.1219496200        1.0000000000
 p  1 1.0
        0.8000000000        1.0000000000
 
  7 0
 s  3 1.0
       13.0107010000        0.0391282527
        1.9622572000        0.2855840539
        0.4445379600        0.7689908602
 s  1 1.0
        0.1219496200        1.0000000000
 p  1 1.0
        0.8000000000        1.0000000000
 
[5D]
[7F]
[9G]
[MO]
 Ene=   0.86768702196684E+00
 Spin= Alpha
 Occup=    0.000000
   1      0.000028685940
   2      0.000017204451
   3      0.000001993988
   4      0.000109905247
   5     -0.000256051445
   6      0.000018307994
   7      0.000903021171
   8      0.015010310754
   9     -0.002510278956
  10      0.009477565930
  11     -0.001407321454
  12      0.000024066646
  13     -0.008255035840
  14      0.001293448418
  15     -0.000071143267
  16     -0.027789330185
  17      0.003793651332
  18      0.000170483824
  19      0.025488538292
  20     -0.002813191587
  21     -0.000537554331
  22     -0.033197829456
  23     -0.120503349781
  24      0.078710169630
  25      0.016051261278
  26     -0.012707646018
  27     -0.011163909785
  28     -0.037876115656
  29      0.028511196999
  30      0.006174294877
  31     -0.005368784925
  32     -0.907901756508
  33      0.138125737444
  34     -0.017483408441
  35      0.001073883545
  36     -0.000865881773
  37      0.000865625641
  38     -0.001388939278
  39      0.003540260119
  40      0.000187046721
  41     -0.000741221832
  42      0.128173434115
  43     -1.320893210333
  44      7.553433551407
  45      0.348155143711
  46      0.087425316387
  47     -0.086704155997
  48     -2.727616037526
  49      0.123336914071
  50      0.160138354784
  51      0.066453525415
  52     -0.035165115761
  53      0.005612416423
  54      0.037210807910
  55     -0.083972233980
  56     -0.128916198430
  57      1.330568844454
  58     -7.584332788389
  59      0.306367687109
  60     -0.182233310134
  61      0.095853633804
  62     -2.640027650053
  63      0.657594974307
  64     -0.240490739945
  65     -0.079464169157
  66     -0.011689176765
  67      0.024804008448
  68     -0.031877663345
  69      0.078447511961
  70     -0.464100244933
  71     -0.355110075240
  72      0.013475270723
  73     -0.021211954859
  74     -0.046932457075
  75     -0.454060304036
  76     -0.348172899562
  77      0.020714710031
  78      0.035543250057
  79      0.035051511643
  80      0.457276307712
  81      0.352257667975
  82      0.010863271610
  83     -0.039450657961
  84     -0.035564135206
  85      0.469272145421
  86      0.361504863565
  87      0.017492804913
  88      0.016533161851
  89      0.047700479527
 Ene=   0.11427715741080E+01
 Spin= Alpha
 Occup=    0.000000
   1      0.000000000000
   2      0.000000000000
   3      0.000000000000
   4      0.000000000000
   5      0.000000000000
   6      0.000000000000
   7      0.000000000000
   8      0.000000000000
   9      0.000000000000
  10      0.000000000000
  11      0.000000000000
  12      0.000000000000
  13      0.000000000000
  14      0.000000000000
  15      0.000000000000
  16      0.000000000000
  17      0.000000000000
  18      0.000000000000
  19      0.000000000000
  20      0.000000000000
  21      0.000000000000
  22      0.000000000000
  23      0.000000000000
  24      0.000000000000
  25      0.000000000000
  26      0.000000000000
  27      0.000000000000
  28      0.000000000000
  29      0.000000000000
  30      0.000000000000
  31      0.000000000000
  32      0.000000000000
  33      0.000000000000
  34      0.000000000000
  35      0.000000000000
  36      0.000000000000
  37      0.000000000000
  38      0.000000000000
  39      0.000000000000
  40      0.000000000000
  41      0.000000000000
  42      0.000000000000
  43      0.000000000000
  44      0.000000000000
  45      0.000000000000
  46      0.000000000000
  47      0.000000000000
  48      0.000000000000
  49      0.000000000000
  50      0.000000000000
  51      0.000000000000
  52      0.000000000000
  53      0.000000000000
  54      0.000000000000
  55      0.000000000000
  56      0.000000000000
  57      0.000000000000
  58      0.000000000000
  59      0.000000000000
  60      0.000000000000
  61      0.000000000000
  62      0.000000000000
  63      0.000000000000
  64      0.000000000000
  65      0.000000000000
  66      0.000000000000
  67      0.000000000000
  68      0.000000000000
  69      0.000000000000
  70      0.000000000000
  71      0.000000000000
  72      0.000000000000
  73      0.000000000000
  74      0.000000000000
  75      0.000000000000
  76      0.000000000000
  77      0.000000000000
  78      0.000000000000
  79      0.000000000000
  80      0.000000000000
  81      0.000000000000
  82      0.000000000000
  83      0.000000000000
  84      0.000000000000
  85      0.000000000000
  86      0.000000000000
  87      0.000000000000
  88      0.000000000000
  89      0.000000000000
 Ene=   0.11427715741080E+01
 Spin= Alpha
 Occup=    0.000000
   1     -0.000034640856
   2     -0.000023847170
   3      0.000282290581
   4      0.000458237118
   5     -0.000324454578
   6     -0.001039969153
   7      0.000750048107
   8     -0.003118596667
   9      0.000440061567
  10      0.000435942917
  11      0.003442711780
  12      0.004864384734
  13     -0.000462959380
  14     -0.003741041677
  15     -0.005421628201
  16     -0.000936586513
  17     -0.006985896967
  18     -0.009193659131
  19      0.000160161889
  20      0.000224248033
  21     -0.001387950100
  22      0.007932235424
  23      0.053247003662
  24      0.030967593247
  25      0.392392568004
  26      0.165865952848
  27     -0.010243983182
  28     -0.069403641750
  29     -0.040115627668
  30     -0.510432415611
  31     -0.215487272679
  32      0.002679600156
  33      0.028476707370
  34      0.046507421666
  35     -0.000063618973
  36     -0.000235441325
  37     -0.000229874803
  38     -0.000527596056
  39      0.000099453206
  40     -0.003245998449
  41      0.000590155316
  42      0.000393798059
  43     -0.003302963446
  44      0.010132775338
  45      0.001435479651
  46      0.008495452839
  47      0.011283855718
  48      0.003309465037
  49      0.039639708081
  50      0.061599702807
  51     -0.008870027705
  52     -0.025271820707
  53     -0.076579391555
  54      0.263551795057
  55      0.119864434278
  56     -0.000096558731
  57      0.000867624378
  58     -0.005555194062
  59      0.000954394453
  60      0.008279527253
  61      0.011959285888
  62      0.004561023174
  63      0.040530234739
  64      0.066129382662
  65      0.017170812041
  66      0.094829044105
  67      0.115395989804
  68      0.242075886715
  69      0.094793565931
  70     -0.037834749605
  71     -0.043342845390
  72     -0.099699877067
  73      0.200344257575
  74     -0.123394893290
  75      0.036672743953
  76      0.040344659261
  77      0.100401297278
  78     -0.198968511470
  79      0.123425226118
  80      0.039381722876
  81      0.043993360985
  82     -0.156703738827
  83     -0.161344160085
  84      0.118609577443
  85     -0.037998314752
  86     -0.041928279756
  87      0.156236413998
  88      0.163282904788
  89     -0.118930148624
 Ene=   0.12498165520198E+01
 Spin= Alpha
 Occup=    0.000000
   1      0.000000000000
   2      0.000000000000
   3      0.000000000000
   4      0.000000000000
   5      0.000000000000
   6      0.000000000000
   7      0.000000000000
   8      0.000000000000
   9      0.000000000000
  10      0.000000000000
  11      0.000000000000
  12      0.000000000000
  13      0.000000000000
  14      0.000000000000
  15      0.000000000000
  16      0.000000000000
  17      0.000000000000
  18      0.000000000000
  19      0.000000000000
  20      0.000000000000
  21      0.000000000000
  22      0.000000000000
  23      0.000000000000
  24      0.000000000000
  25      0.000000000000
  26      0.000000000000
  27      0.000000000000
  28      0.000000000000
  29      0.000000000000
  30      0.000000000000
  31      0.000000000000
  32      0.000000000000
  33      0.000000000000
  34      0.000000000000
  35      0.000000000000
  36      0.000000000000
  37      0.000000000000
  38      0.000000000000
  39      0.000000000000
  40      0.000000000000
  41      0.000000000000
  42      0.000000000000
  43      0.000000000000
  44      0.000000000000
  45      0.000000000000
  46      0.000000000000
  47      0.000000000000
  48      0.000000000000
  49      0.000000000000
  50      0.000000000000
  51      0.000000000000
  52      0.000000000000
  53      0.000000000000
  54      0.000000000000
  55      0.000000000000
  56      0.000000000000
  57      0.000000000000
  58      0.000000000000
  59      0.000000000000
  60      0.000000000000
  61      0.000000000000
  62      0.000000000000
  63      0.000000000000
  64      0.000000000000
  65      0.000000000000
  66      0.000000000000
  67      0.000000000000
  68      0.000000000000
  69      0.000000000000
  70      0.000000000000
  71      0.000000000000
  72      0.000000000000
  73      0.000000000000
  74      0.000000000000
  75      0.000000000000
  76      0.000000000000
  77      0.000000000000
  78      0.000000000000
  79      0.000000000000
  80      0.000000000000
  81      0.000000000000
  82      0.000000000000
  83      0.000000000000
  84      0.000000000000
  85      0.000000000000
  86      0.000000000000
  87      0.000000000000
  88      0.000000000000
  89      0.000000000000
 Ene=   0.12498165520198E+01
 Spin= Alpha
 Occup=    0.000000
   1     -0.005740283096
   2     -0.004067688368
   3      0.057568961982
   4      0.098652340730
   5     -0.077846467337
   6     -0.213958533772
   7      0.210833747222
   8     -1.470613961457
   9      0.154482358674
  10      0.007937378345
  11      0.049282400050
  12     -0.032918998627
  13     -0.005352981332
  14     -0.033642681220
  15      0.022473381816
  16     -0.032853802873
  17     -0.202218243848
  18      0.135073320010
  19      0.043171085891
  20      0.264819997122
  21     -0.176906552484
  22      0.483246975915
  23     -0.132783453607
  24      0.024245242714
  25     -0.022910548182
  26      0.069924724032
  27     -0.641426790502
  28      0.169629517221
  29     -0.019505756092
  30     -0.008079542439
  31     -0.001814307844
  32     -0.114970900492
  33     -0.750736226094
  34      0.502097539570
  35     -0.001061746409
  36     -0.002555830050
  37      0.001764546651
  38      0.000574852699
  39     -0.000818188976
  40     -0.000340548019
  41     -0.001544077680
  42      0.065412590958
  43     -0.612861407385
  44      1.372207838298
  45      0.095414837378
  46      0.177645656604
  47     -0.123635531847
  48     -0.145490526155
  49     -0.473213726044
  50      0.315850678282
  51      0.071298030120
  52      0.227079699840
  53     -0.160616365840
  54     -0.006302812814
  55     -0.038190551080
  56      0.065319439104
  57     -0.616446361734
  58      1.406671151962
  59     -0.036686101294
  60      0.195470688807
  61     -0.125872805122
  62      0.003574354101
  63     -0.492832711857
  64      0.329396227664
  65     -0.051045249789
  66     -0.222467710575
  67      0.144442159790
  68      0.057990813826
  69     -0.088150669854
  70     -0.113261481717
  71     -0.172133913019
  72      0.062833935427
  73      0.015780520587
  74     -0.117755190671
  75     -0.115492056949
  76     -0.176000380878
  77      0.071493379697
  78      0.112455497179
  79      0.021526106311
  80     -0.116043778645
  81     -0.173694733602
  82     -0.040240979602
  83      0.127361108365
  84      0.023722574046
  85     -0.117765426956
  86     -0.178191848614
  87     -0.050528219720
  88      0.034334957143
  89     -0.120075412644
 Ene=   0.12965095222758E+01
 Spin= Alpha
 Occup=    0.000000
   1     -0.007474155341
   2     -0.005287160636
   3      0.073979279528
   4      0.126229944441
   5     -0.099014439576
   6     -0.273514642585
   7      0.243154690096
   8     -0.775885069225
   9      0.095834587094
  10      0.009321070457
  11      0.059119525243
  12     -0.039601075066
  13     -0.005892857151
  14     -0.037669888987
  15      0.025225109124
  16     -0.040621851483
  17     -0.256417374518
  18      0.171791627204
  19      0.055412350228
  20      0.349549325725
  21     -0.234171840867
  22     -0.384979761352
  23      0.068650523163
  24      0.038094576345
  25     -0.152192251529
  26      0.347097326253
  27      0.573294839703
  28     -0.110367888439
  29     -0.041791152778
  30      0.180534874469
  31     -0.408024990627
  32     -0.067515433825
  33     -0.452948444598
  34      0.302509993497
  35     -0.000322053762
  36     -0.000789358912
  37      0.000473815567
  38      0.000126988608
  39     -0.000860213370
  40     -0.000729147195
  41     -0.003798041635
  42      0.015074443391
  43     -0.093323634291
  44      0.185091293799
  45      0.049783439730
  46      0.139329972911
  47     -0.095230396265
  48     -0.217765522994
  49     -0.314117042299
  50      0.221541669203
  51     -0.065205805850
  52      0.162796737847
  53     -0.108624837071
  54      0.043713603746
  55     -0.135505068738
  56      0.015498020433
  57     -0.100525211935
  58      0.234429097830
  59     -0.005640564329
  60      0.147674465136
  61     -0.096445164171
  62      0.127262763153
  63     -0.365212414208
  64      0.232620186063
  65     -0.133399054956
  66     -0.087977677509
  67      0.061411950134
  68      0.079435059283
  69     -0.163479789814
  70      0.035816036695
  71      0.080291718085
  72     -0.015823147630
  73      0.134707444330
  74     -0.092433926150
  75      0.035273390558
  76      0.079030696863
  77     -0.015879909251
  78      0.140521335234
  79     -0.086115007094
  80      0.033475098240
  81      0.077970121303
  82      0.058113218524
  83      0.129081557838
  84     -0.083662539934
  85      0.032020752964
  86      0.075572575730
  87      0.057556846761
  88      0.124561131768
  89     -0.090133698111
 Ene=   0.12965095222758E+01
 Spin= Alpha
 Occup=    0.000000
   1      0.000000000000
   2      0.000000000000
   3      0.000000000000
   4      0.000000000000
   5      0.000000000000
   6      0.000000000000
   7      0.000000000000
   8      0.000000000000
   9      0.000000000000
  10      0.000000000000
  11      0.000000000000
  12      0.000000000000
  13      0.000000000000
  14      0.000000000000
  15      0.000000000000
  16      0.000000000000
  17      0.000000000000
  18      0.000000000000
  19      0.000000000000
  20      0.000000000000
  21      0.000000000000
  22      0.000000000000
  23      0.000000000000
  24      0.000000000000
  25      0.000000000000
  26      0.000000000000
  27      0.000000000000
  28      0.000000000000
  29      0.000000000000
  30      0.000000000000
  31      0.000000000000
  32      0.000000000000
  33      0.000000000000
  34      0.000000000000
  35      0.000000000000
  36      0.000000000000
  37      0.000000000000
  38      0.000000000000
  39      0.000000000000
  40      0.000000000000
  41      0.000000000000
  42      0.000000000000
  43      0.000000000000
  44      0.000000000000
  45      0.000000000000
  46      0.000000000000
  47      0.000000000000
  48      0.000000000000
  49      0.000000000000
  50      0.000000000000
  51      0.000000000000
  52      0.000000000000
  53      0.000000000000
  54      0.000000000000
  55      0.000000000000
  56      0.000000000000
  57      0.000000000000
  58      0.000000000000
  59      0.000000000000
  60      0.000000000000
  61      0.000000000000
  62      0.000000000000
  63      0.000000000000
  64      0.000000000000
  65      0.000000000000
  66      0.000000000000
  67      0.000000000000
  68      0.000000000000
  69      0.000000000000
  70      0.000000000000
  71      0.000000000000
  72      0.000000000000
  73      0.000000000000
  74      0.000000000000
  75      0.000000000000
  76      0.000000000000
  77      0.000000000000
  78      0.000000000000
  79      0.000000000000
  80      0.000000000000
  81      0.000000000000
  82      0.000000000000
  83      0.000000000000
  84      0.000000000000
  85      0.000000000000
  86      0.000000000000
  87      0.000000000000
  88      0.000000000000
  89      0.000000000000
 Ene=   0.13413511348429E+01
 Spin= Alpha
 Occup=    0.000000
   1      0.000000000000
   2      0.000000000000
   3      0.000000000000
   4      0.000000000000
   5      0.000000000000
   6      0.000000000000
   7      0.000000000000
   8      0.000000000000
   9      0.000000000000
  10      0.000000000000
  11      0.000000000000
  12      0.000000000000
  13      0.000000000000
  14      0.000000000000
  15      0.000000000000
  16      0.000000000000
  17      0.000000000000
  18      0.000000000000
  19      0.000000000000
  20      0.000000000000
  21      0.000000000000
  22      0.000000000000
  23      0.000000000000
  24      0.000000000000
  25      0.000000000000
  26      0.000000000000
  27      0.000000000000
  28      0.000000000000
  29      0.000000000000
  30      0.000000000000
  31      0.000000000000
  32      0.000000000000
  33      0.000000000000
  34      0.000000000000
  35      0.000000000000
  36      0.000000000000
  37      0.000000000000
  38      0.000000000000
  39      0.000000000000
  40      0.000000000000
  41      0.000000000000
  42      0.000000000000
  43      0.000000000000
  44      0.000000000000
  45      0.000000000000
  46      0.000000000000
  47      0.000000000000
  48      0.000000000000
  49      0.000000000000
  50      0.000000000000
  51      0.000000000000
  52      0.000000000000
  53      0.000000000000
  54      0.000000000000
  55      0.000000000000
  56      0.000000000000
  57      0.000000000000
  58      0.000000000000
  59      0.000000000000
  60      0.000000000000
  61      0.000000000000
  62      0.000000000000
  63      0.000000000000
  64      0.000000000000
  65      0.000000000000
  66      0.000000000000
  67      0.000000000000
  68      0.000000000000
  69      0.000000000000
  70      0.000000000000
  71      0.000000000000
  72      0.000000000000
  73      0.000000000000
  74      0.000000000000
  75      0.000000000000
  76      0.000000000000
  77      0.000000000000
  78      0.000000000000
  79      0.000000000000
  80      0.000000000000
  81      0.000000000000
  82      0.000000000000
  83      0.000000000000
  84      0.000000000000
  85      0.000000000000
  86      0.000000000000
  87      0.000000000000
  88      0.000000000000
  89      0.000000000000
 Ene=   0.13413511348429E+01
 Spin= Alpha
 Occup=    0.000000
   1     -0.000018607659
   2     -0.000013668677
   3      0.000231503091
   4      0.000413957823
   5     -0.000352346635
   6     -0.000861446833
   7      0.000981897307
   8     -0.006138188276
   9      0.000217721343
  10      0.000057599362
  11      0.000314866647
  12     -0.000093769969
  13     -0.000041221781
  14     -0.000199249066
  15      0.000064841859
  16     -0.000229922205
  17     -0.001381841792
  18      0.000392816340
  19      0.000294484375
  20      0.001907912240
  21     -0.000565715217
  22     -0.013477022455
  23     -0.073268324308
  24     -0.113972887553
  25      0.010389731118
  26      0.015936409427
  27      0.017030562862
  28      0.094272657580
  29      0.147020152169
  30     -0.013064449085
  31     -0.020135346991
  32     -0.001199882617
  33     -0.002879929774
  34      0.002882642076
  35     -0.000012543671
  36     -0.000097191635
  37     -0.000050389730
  38     -0.000441927839
  39     -0.000180916409
  40      0.000096468144
  41      0.000012264186
  42      0.000254610878
  43     -0.002848322677
  44      0.009787343048
  45     -0.005347573369
  46     -0.044218895823
  47     -0.069531935515
  48      0.034525517538
  49      0.291808927859
  50      0.450129184957
  51     -0.013455289766
  52     -0.050820854896
  53     -0.104153115094
  54      0.181515928783
  55      0.086867261273
  56      0.000303426345
  57     -0.001834407003
  58      0.000159696112
  59      0.005390358566
  60      0.046675727061
  61      0.068314297953
  62     -0.037645673424
  63     -0.296568993367
  64     -0.449059262049
  65     -0.019440321225
  66     -0.098221304108
  67     -0.128691201496
  68     -0.154737721246
  69     -0.057182180732
  70     -0.096150351567
  71     -0.190236429806
  72     -0.225983239231
  73      0.326298902660
  74     -0.106059925778
  75      0.094654354817
  76      0.188916503010
  77      0.236360347561
  78     -0.244261209790
  79      0.231294933351
  80     -0.096108962635
  81     -0.189902559099
  82      0.302152357929
  83      0.165208510817
  84     -0.222112355771
  85      0.096265637447
  86      0.190280248169
  87     -0.312971553145
  88     -0.246786524172
  89      0.095571258384
 Ene=   0.13961031972417E+01
 Spin= Alpha
 Occup=    0.000000
   1      0.000000000000
   2      0.000000000000
   3      0.000000000000
   4      0.000000000000
   5      0.000000000000
   6      0.000000000000
   7      0.000000000000
   8      0.000000000000
   9      0.000000000000
  10      0.000000000000
  11      0.000000000000
  12      0.000000000000
  13      0.000000000000
  14      0.000000000000
  15      0.000000000000
  16      0.000000000000
  17      0.000000000000
  18      0.000000000000
  19      0.000000000000
  20      0.000000000000
  21      0.000000000000
  22      0.000000000000
  23      0.000000000000
  24      0.000000000000
  25      0.000000000000
  26      0.000000000000
  27      0.000000000000
  28      0.000000000000
  29      0.000000000000
  30      0.000000000000
  31      0.000000000000
  32      0.000000000000
  33      0.000000000000
  34      0.000000000000
  35      0.000000000000
  36      0.000000000000
  37      0.000000000000
  38      0.000000000000
  39      0.000000000000
  40      0.000000000000
  41      0.000000000000
  42      0.000000000000
  43      0.000000000000
  44      0.000000000000
  45      0.000000000000
  46      0.000000000000
  47      0.000000000000
  48      0.000000000000
  49      0.000000000000
  50      0.000000000000
  51      0.000000000000
  52      0.000000000000
  53      0.000000000000
  54      0.000000000000
  55      0.000000000000
  56      0.000000000000
  57      0.000000000000
  58      0.000000000000
  59      0.000000000000
  60      0.000000000000
  61      0.000000000000
  62      0.000000000000
  63      0.000000000000
  64      0.000000000000
  65      0.000000000000
  66      0.000000000000
  67      0.000000000000
  68      0.000000000000
  69      0.000000000000
  70      0.000000000000
  71      0.000000000000
  72      0.000000000000
  73      0.000000000000
  74      0.000000000000
  75      0.000000000000
  76      0.000000000000
  77      0.000000000000
  78      0.000000000000
  79      0.000000000000
  80      0.000000000000
  81      0.000000000000
  82      0.000000000000
  83      0.000000000000
  84      0.000000000000
  85      0.000000000000
  86      0.000000000000
  87      0.000000000000
  88      0.000000000000
  89      0.000000000000
 Ene=   0.13961031972417E+01
 Spin= Alpha
 Occup=    0.000000
   1     -0.000033509808
   2     -0.000023461532
   3      0.000308452854
   4      0.000517181390
   5     -0.000391747538
   6     -0.001139986577
   7      0.000886166124
   8      0.000849372291
   9     -0.000272701118
  10      0.000329345647
  11     -0.000113843146
  12     -0.000680319957
  13     -0.000212009012
  14      0.000086511136
  15      0.000445350002
  16     -0.001424748522
  17      0.000404064017
  18      0.002901202938
  19      0.001884681119
  20     -0.000326512458
  21     -0.003745595856
  22      0.066352472489
  23      0.306450210916
  24      0.479978603206
  25     -0.047278629187
  26     -0.062103893813
  27     -0.102664479067
  28     -0.474124636698
  29     -0.741957992871
  30      0.073298018616
  31      0.096228875340
  32     -0.000144652488
  33     -0.000550424861
  34     -0.000934632302
  35      0.000106527077
  36      0.000687149327
  37      0.000397972736
  38      0.003130627947
  39      0.001298436895
  40     -0.000588029600
  41     -0.000207168495
  42      0.000108925239
  43      0.001422393142
  44     -0.009141949924
  45     -0.005590831554
  46     -0.048641078203
  47     -0.076702376921
  48      0.054033971735
  49      0.433141026613
  50      0.665483969724
  51     -0.008713111933
  52     -0.038132016739
  53     -0.061588675452
  54     -0.000708389334
  55      0.003914288891
  56      0.000058123595
  57     -0.001602365184
  58      0.008707593768
  59      0.006901483239
  60      0.048608474489
  61      0.075278153744
  62     -0.053389019299
  63     -0.428340393184
  64     -0.660230159993
  65     -0.008832273907
  66     -0.039553726976
  67     -0.061249814333
  68      0.012857374270
  69      0.011452446630
  70     -0.153305913162
  71     -0.253803487210
  72     -0.157822273429
  73      0.013650815132
  74      0.190966186125
  75      0.156279264297
  76      0.256873652117
  77      0.180577731137
  78      0.159964126117
  79      0.067996463834
  80     -0.152934868645
  81     -0.254499273774
  82      0.128823222177
  83     -0.195508864112
  84     -0.066752750634
  85      0.150676346312
  86      0.251001372771
  87     -0.148765454155
  88      0.026764493789
  89     -0.189324886427
 Ene=   0.14303620444566E+01
 Spin= Alpha
 Occup=    0.000000
   1      0.000000000000
   2      0.000000000000
   3      0.000000000000
   4      0.000000000000
   5      0.000000000000
   6      0.000000000000
   7      0.000000000000
   8      0.000000000000
   9      0.000000000000
  10      0.000000000000
  11      0.000000000000
  12      0.000000000000
  13      0.000000000000
  14      0.000000000000
  15      0.000000000000
  16      0.000000000000
  17      0.000000000000
  18      0.000000000000
  19      0.000000000000
  20      0.000000000000
  21      0.000000000000
  22      0.000000000000
  23      0.000000000000
  24      0.000000000000
  25      0.000000000000
  26      0.000000000000
  27      0.000000000000
  28      0.000000000000
  29      0.000000000000
  30      0.000000000000
  31      0.000000000000