[Molden Format]
[Title]
generated by TRESC, real part2 of MOs of job Ni0-C2H4
 
[Atoms] AU
Ni   1  28    2.0327243480    6.6651129323   -0.4637853482
 C   2   6    4.4866582262    4.9116344944    1.3008835560
 C   3   6    4.8771137450    4.8741236186   -1.3947805326
 H   4   1    5.7310700770    6.0706468704    2.4997637439
 H   5   1    3.8369470533    3.1858198160    2.2645095603
 H   6   1    4.5308414173    3.1179949920   -2.4558991994
 H   7   1    6.4130479072    6.0088908466   -2.2212746715
[GTO]
  1 0
 s  6 1.0
    71074.8032110000        0.0049184150
    10672.0209410000        0.0200173975
     2428.1389007000        0.0784715325
      685.5359514800        0.2482002663
      223.1007286300        0.4665280195
       76.8420140400        0.3374151926
 s  1 1.0
      148.7112201600        1.0000000000
 s  1 1.0
       17.4591549900        1.0000000000
 s  1 1.0
        7.1625280700        1.0000000000
 s  1 1.0
       12.5561371300        1.0000000000
 s  1 1.0
        2.0735740500        1.0000000000
 s  1 1.0
        0.8538264100        1.0000000000
 s  1 1.0
        0.1053676600        1.0000000000
 s  1 1.0
        0.0381340900        1.0000000000
 p  5 1.0
      916.7360866200        0.0107030171
      216.0613991300        0.0711467350
       68.3839148200        0.2646675976
       24.5938439500        0.5093159720
        9.1392960200        0.3283291628
 p  1 1.0
        4.7193371700        1.0000000000
 p  1 1.0
        1.8161849200        1.0000000000
 p  1 1.0
        0.6784075100        1.0000000000
 d  4 1.0
       47.0938321100        0.0346401353
       13.1464639700        0.1833736831
        4.4170548900        0.4455621030
        1.4771565100        0.5627236040
 d  1 1.0
        0.4373592200        1.0000000000
 p  1 1.0
        0.1465880000        1.0000000000
 f  1 1.0
        2.1740000000        1.0000000000
 
  2 0
 s  5 1.0
     1238.4016938000        0.0059599745
      186.2900499200        0.0422621111
       42.2511763500        0.1866575214
       11.6765579300        0.4675815865
        3.5930506500        0.4422897287
 s  1 1.0
        0.4024514700        1.0000000000
 s  1 1.0
        0.1309018300        1.0000000000
 p  3 1.0
        9.4680970600        0.0570294585
        2.0103545100        0.3130471495
        0.5477100500        0.7605135301
 p  1 1.0
        0.1526861400        1.0000000000
 d  1 1.0
        0.8000000000        1.0000000000
 
  3 0
 s  5 1.0
     1238.4016938000        0.0059599745
      186.2900499200        0.0422621111
       42.2511763500        0.1866575214
       11.6765579300        0.4675815865
        3.5930506500        0.4422897287
 s  1 1.0
        0.4024514700        1.0000000000
 s  1 1.0
        0.1309018300        1.0000000000
 p  3 1.0
        9.4680970600        0.0570294585
        2.0103545100        0.3130471495
        0.5477100500        0.7605135301
 p  1 1.0
        0.1526861400        1.0000000000
 d  1 1.0
        0.8000000000        1.0000000000
 
  4 0
 s  3 1.0
       13.0107010000        0.0391282527
        1.9622572000        0.2855840539
        0.4445379600        0.7689908602
 s  1 1.0
        0.1219496200        1.0000000000
 p  1 1.0
        0.8000000000        1.0000000000
 
  5 0
 s  3 1.0
       13.0107010000        0.0391282527
        1.9622572000        0.2855840539
        0.4445379600        0.7689908602
 s  1 1.0
        0.1219496200        1.0000000000
 p  1 1.0
        0.8000000000        1.0000000000
 
  6 0
 s  3 1.0
       13.0107010000        0.0391282527
        1.9622572000        0.2855840539
        0.4445379600        0.7689908602
 s  1 1.0
        0.1219496200        1.0000000000
 p  1 1.0
        0.8000000000        1.0000000000
 
  7 0
 s  3 1.0
       13.0107010000        0.0391282527
        1.9622572000        0.2855840539
        0.4445379600        0.7689908602
 s  1 1.0
        0.1219496200        1.0000000000
 p  1 1.0
        0.8000000000        1.0000000000
 
[5D]
[7F]
[9G]
[MO]
 Ene=   0.86768702196545E+00
 Spin= Alpha
 Occup=    0.000000
   1      0.000000000000
   2      0.000000000000
   3      0.000000000000
   4      0.000000000000
   5      0.000000000000
   6      0.000000000000
   7      0.000000000000
   8      0.000000000000
   9      0.000000000000
  10      0.000000000000
  11      0.000000000000
  12      0.000000000000
  13      0.000000000000
  14      0.000000000000
  15      0.000000000000
  16      0.000000000000
  17      0.000000000000
  18      0.000000000000
  19      0.000000000000
  20      0.000000000000
  21      0.000000000000
  22      0.000000000000
  23      0.000000000000
  24      0.000000000000
  25      0.000000000000
  26      0.000000000000
  27      0.000000000000
  28      0.000000000000
  29      0.000000000000
  30      0.000000000000
  31      0.000000000000
  32      0.000000000000
  33      0.000000000000
  34      0.000000000000
  35      0.000000000000
  36      0.000000000000
  37      0.000000000000
  38      0.000000000000
  39      0.000000000000
  40      0.000000000000
  41      0.000000000000
  42      0.000000000000
  43      0.000000000000
  44      0.000000000000
  45      0.000000000000
  46      0.000000000000
  47      0.000000000000
  48      0.000000000000
  49      0.000000000000
  50      0.000000000000
  51      0.000000000000
  52      0.000000000000
  53      0.000000000000
  54      0.000000000000
  55      0.000000000000
  56      0.000000000000
  57      0.000000000000
  58      0.000000000000
  59      0.000000000000
  60      0.000000000000
  61      0.000000000000
  62      0.000000000000
  63      0.000000000000
  64      0.000000000000
  65      0.000000000000
  66      0.000000000000
  67      0.000000000000
  68      0.000000000000
  69      0.000000000000
  70      0.000000000000
  71      0.000000000000
  72      0.000000000000
  73      0.000000000000
  74      0.000000000000
  75      0.000000000000
  76      0.000000000000
  77      0.000000000000
  78      0.000000000000
  79      0.000000000000
  80      0.000000000000
  81      0.000000000000
  82      0.000000000000
  83      0.000000000000
  84      0.000000000000
  85      0.000000000000
  86      0.000000000000
  87      0.000000000000
  88      0.000000000000
  89      0.000000000000
 Ene=   0.11427715741080E+01
 Spin= Alpha
 Occup=    0.000000
   1     -0.000034640856
   2     -0.000023847170
   3      0.000282290581
   4      0.000458237118
   5     -0.000324454578
   6     -0.001039969154
   7      0.000750048107
   8     -0.003118596667
   9      0.000440061567
  10      0.003442711780
  11      0.004864384734
  12      0.000435942917
  13     -0.003741041677
  14     -0.005421628201
  15     -0.000462959380
  16     -0.006985896968
  17     -0.009193659132
  18     -0.000936586513
  19      0.000224248033
  20     -0.001387950099
  21      0.000160161889
  22      0.007932235423
  23      0.053247003662
  24      0.030967593247
  25      0.392392568004
  26      0.165865952848
  27     -0.010243983181
  28     -0.069403641750
  29     -0.040115627668
  30     -0.510432415611
  31     -0.215487272680
  32      0.028476707370
  33      0.046507421665
  34      0.002679600155
  35     -0.000063618973
  36     -0.000235441327
  37     -0.000229874804
  38     -0.000527596055
  39      0.000099453206
  40     -0.003245998448
  41      0.000590155316
  42      0.000393798059
  43     -0.003302963446
  44      0.010132775339
  45      0.008495452839
  46      0.011283855718
  47      0.001435479650
  48      0.039639708081
  49      0.061599702807
  50      0.003309465036
  51     -0.008870027705
  52     -0.025271820707
  53     -0.076579391555
  54      0.263551795056
  55      0.119864434278
  56     -0.000096558731
  57      0.000867624377
  58     -0.005555194063
  59      0.008279527253
  60      0.011959285887
  61      0.000954394453
  62      0.040530234739
  63      0.066129382662
  64      0.004561023173
  65      0.017170812041
  66      0.094829044105
  67      0.115395989804
  68      0.242075886715
  69      0.094793565931
  70     -0.037834749605
  71     -0.043342845390
  72      0.200344257575
  73     -0.123394893290
  74     -0.099699877066
  75      0.036672743953
  76      0.040344659261
  77     -0.198968511470
  78      0.123425226118
  79      0.100401297278
  80      0.039381722876
  81      0.043993360985
  82     -0.161344160085
  83      0.118609577443
  84     -0.156703738827
  85     -0.037998314753
  86     -0.041928279756
  87      0.163282904788
  88     -0.118930148625
  89      0.156236413998
 Ene=   0.11427715741080E+01
 Spin= Alpha
 Occup=    0.000000
   1      0.000000000000
   2      0.000000000000
   3      0.000000000000
   4      0.000000000000
   5      0.000000000000
   6      0.000000000000
   7      0.000000000000
   8      0.000000000000
   9      0.000000000000
  10      0.000000000000
  11      0.000000000000
  12      0.000000000000
  13      0.000000000000
  14      0.000000000000
  15      0.000000000000
  16      0.000000000000
  17      0.000000000000
  18      0.000000000000
  19      0.000000000000
  20      0.000000000000
  21      0.000000000000
  22      0.000000000000
  23      0.000000000000
  24      0.000000000000
  25      0.000000000000
  26      0.000000000000
  27      0.000000000000
  28      0.000000000000
  29      0.000000000000
  30      0.000000000000
  31      0.000000000000
  32      0.000000000000
  33      0.000000000000
  34      0.000000000000
  35      0.000000000000
  36      0.000000000000
  37      0.000000000000
  38      0.000000000000
  39      0.000000000000
  40      0.000000000000
  41      0.000000000000
  42      0.000000000000
  43      0.000000000000
  44      0.000000000000
  45      0.000000000000
  46      0.000000000000
  47      0.000000000000
  48      0.000000000000
  49      0.000000000000
  50      0.000000000000
  51      0.000000000000
  52      0.000000000000
  53      0.000000000000
  54      0.000000000000
  55      0.000000000000
  56      0.000000000000
  57      0.000000000000
  58      0.000000000000
  59      0.000000000000
  60      0.000000000000
  61      0.000000000000
  62      0.000000000000
  63      0.000000000000
  64      0.000000000000
  65      0.000000000000
  66      0.000000000000
  67      0.000000000000
  68      0.000000000000
  69      0.000000000000
  70      0.000000000000
  71      0.000000000000
  72      0.000000000000
  73      0.000000000000
  74      0.000000000000
  75      0.000000000000
  76      0.000000000000
  77      0.000000000000
  78      0.000000000000
  79      0.000000000000
  80      0.000000000000
  81      0.000000000000
  82      0.000000000000
  83      0.000000000000
  84      0.000000000000
  85      0.000000000000
  86      0.000000000000
  87      0.000000000000
  88      0.000000000000
  89      0.000000000000
 Ene=   0.12498165520200E+01
 Spin= Alpha
 Occup=    0.000000
   1     -0.005740283096
   2     -0.004067688368
   3      0.057568961982
   4      0.098652340729
   5     -0.077846467336
   6     -0.213958533771
   7      0.210833747221
   8     -1.470613961456
   9      0.154482358674
  10      0.049282400050
  11     -0.032918998627
  12      0.007937378345
  13     -0.033642681220
  14      0.022473381816
  15     -0.005352981332
  16     -0.202218243847
  17      0.135073320010
  18     -0.032853802873
  19      0.264819997121
  20     -0.176906552484
  21      0.043171085891
  22      0.483246975916
  23     -0.132783453607
  24      0.024245242714
  25     -0.022910548182
  26      0.069924724031
  27     -0.641426790503
  28      0.169629517221
  29     -0.019505756092
  30     -0.008079542439
  31     -0.001814307843
  32     -0.750736226094
  33      0.502097539569
  34     -0.114970900493
  35     -0.001061746409
  36     -0.002555830049
  37      0.001764546651
  38      0.000574852699
  39     -0.000818188975
  40     -0.000340548018
  41     -0.001544077681
  42      0.065412590958
  43     -0.612861407387
  44      1.372207838305
  45      0.177645656603
  46     -0.123635531847
  47      0.095414837378
  48     -0.473213726043
  49      0.315850678281
  50     -0.145490526156
  51      0.071298030120
  52      0.227079699840
  53     -0.160616365840
  54     -0.006302812814
  55     -0.038190551080
  56      0.065319439104
  57     -0.616446361733
  58      1.406671151956
  59      0.195470688806
  60     -0.125872805122
  61     -0.036686101294
  62     -0.492832711856
  63      0.329396227664
  64      0.003574354100
  65     -0.051045249789
  66     -0.222467710575
  67      0.144442159790
  68      0.057990813826
  69     -0.088150669853
  70     -0.113261481718
  71     -0.172133913020
  72      0.015780520587
  73     -0.117755190671
  74      0.062833935426
  75     -0.115492056949
  76     -0.176000380879
  77      0.112455497179
  78      0.021526106311
  79      0.071493379697
  80     -0.116043778645
  81     -0.173694733601
  82      0.127361108364
  83      0.023722574046
  84     -0.040240979603
  85     -0.117765426956
  86     -0.178191848614
  87      0.034334957143
  88     -0.120075412644
  89     -0.050528219720
 Ene=   0.12498165520200E+01
 Spin= Alpha
 Occup=    0.000000
   1      0.000000000000
   2      0.000000000000
   3      0.000000000000
   4      0.000000000000
   5      0.000000000000
   6      0.000000000000
   7      0.000000000000
   8      0.000000000000
   9      0.000000000000
  10      0.000000000000
  11      0.000000000000
  12      0.000000000000
  13      0.000000000000
  14      0.000000000000
  15      0.000000000000
  16      0.000000000000
  17      0.000000000000
  18      0.000000000000
  19      0.000000000000
  20      0.000000000000
  21      0.000000000000
  22      0.000000000000
  23      0.000000000000
  24      0.000000000000
  25      0.000000000000
  26      0.000000000000
  27      0.000000000000
  28      0.000000000000
  29      0.000000000000
  30      0.000000000000
  31      0.000000000000
  32      0.000000000000
  33      0.000000000000
  34      0.000000000000
  35      0.000000000000
  36      0.000000000000
  37      0.000000000000
  38      0.000000000000
  39      0.000000000000
  40      0.000000000000
  41      0.000000000000
  42      0.000000000000
  43      0.000000000000
  44      0.000000000000
  45      0.000000000000
  46      0.000000000000
  47      0.000000000000
  48      0.000000000000
  49      0.000000000000
  50      0.000000000000
  51      0.000000000000
  52      0.000000000000
  53      0.000000000000
  54      0.000000000000
  55      0.000000000000
  56      0.000000000000
  57      0.000000000000
  58      0.000000000000
  59      0.000000000000
  60      0.000000000000
  61      0.000000000000
  62      0.000000000000
  63      0.000000000000
  64      0.000000000000
  65      0.000000000000
  66      0.000000000000
  67      0.000000000000
  68      0.000000000000
  69      0.000000000000
  70      0.000000000000
  71      0.000000000000
  72      0.000000000000
  73      0.000000000000
  74      0.000000000000
  75      0.000000000000
  76      0.000000000000
  77      0.000000000000
  78      0.000000000000
  79      0.000000000000
  80      0.000000000000
  81      0.000000000000
  82      0.000000000000
  83      0.000000000000
  84      0.000000000000
  85      0.000000000000
  86      0.000000000000
  87      0.000000000000
  88      0.000000000000
  89      0.000000000000
 Ene=   0.12965095222759E+01
 Spin= Alpha
 Occup=    0.000000
   1     -0.007474155341
   2     -0.005287160636
   3      0.073979279528
   4      0.126229944440
   5     -0.099014439576
   6     -0.273514642585
   7      0.243154690096
   8     -0.775885069229
   9      0.095834587094
  10      0.059119525243
  11     -0.039601075066
  12      0.009321070457
  13     -0.037669888987
  14      0.025225109124
  15     -0.005892857151
  16     -0.256417374519
  17      0.171791627204
  18     -0.040621851483
  19      0.349549325726
  20     -0.234171840867
  21      0.055412350228
  22     -0.384979761350
  23      0.068650523162
  24      0.038094576344
  25     -0.152192251529
  26      0.347097326253
  27      0.573294839702
  28     -0.110367888438
  29     -0.041791152777
  30      0.180534874469
  31     -0.408024990626
  32     -0.452948444600
  33      0.302509993498
  34     -0.067515433825
  35     -0.000322053762
  36     -0.000789358914
  37      0.000473815566
  38      0.000126988608
  39     -0.000860213370
  40     -0.000729147194
  41     -0.003798041637
  42      0.015074443392
  43     -0.093323634293
  44      0.185091293803
  45      0.139329972911
  46     -0.095230396265
  47      0.049783439731
  48     -0.314117042301
  49      0.221541669201
  50     -0.217765522995
  51     -0.065205805850
  52      0.162796737848
  53     -0.108624837071
  54      0.043713603745
  55     -0.135505068738
  56      0.015498020433
  57     -0.100525211937
  58      0.234429097834
  59      0.147674465137
  60     -0.096445164172
  61     -0.005640564329
  62     -0.365212414208
  63      0.232620186067
  64      0.127262763153
  65     -0.133399054956
  66     -0.087977677509
  67      0.061411950135
  68      0.079435059283
  69     -0.163479789814
  70      0.035816036695
  71      0.080291718085
  72      0.134707444329
  73     -0.092433926151
  74     -0.015823147629
  75      0.035273390556
  76      0.079030696862
  77      0.140521335235
  78     -0.086115007095
  79     -0.015879909252
  80      0.033475098240
  81      0.077970121304
  82      0.129081557838
  83     -0.083662539933
  84      0.058113218524
  85      0.032020752964
  86      0.075572575728
  87      0.124561131769
  88     -0.090133698111
  89      0.057556846762
 Ene=   0.12965095222760E+01
 Spin= Alpha
 Occup=    0.000000
   1      0.000000000000
   2      0.000000000000
   3      0.000000000000
   4      0.000000000000
   5      0.000000000000
   6      0.000000000000
   7      0.000000000000
   8      0.000000000000
   9      0.000000000000
  10      0.000000000000
  11      0.000000000000
  12      0.000000000000
  13      0.000000000000
  14      0.000000000000
  15      0.000000000000
  16      0.000000000000
  17      0.000000000000
  18      0.000000000000
  19      0.000000000000
  20      0.000000000000
  21      0.000000000000
  22      0.000000000000
  23      0.000000000000
  24      0.000000000000
  25      0.000000000000
  26      0.000000000000
  27      0.000000000000
  28      0.000000000000
  29      0.000000000000
  30      0.000000000000
  31      0.000000000000
  32      0.000000000000
  33      0.000000000000
  34      0.000000000000
  35      0.000000000000
  36      0.000000000000
  37      0.000000000000
  38      0.000000000000
  39      0.000000000000
  40      0.000000000000
  41      0.000000000000
  42      0.000000000000
  43      0.000000000000
  44      0.000000000000
  45      0.000000000000
  46      0.000000000000
  47      0.000000000000
  48      0.000000000000
  49      0.000000000000
  50      0.000000000000
  51      0.000000000000
  52      0.000000000000
  53      0.000000000000
  54      0.000000000000
  55      0.000000000000
  56      0.000000000000
  57      0.000000000000
  58      0.000000000000
  59      0.000000000000
  60      0.000000000000
  61      0.000000000000
  62      0.000000000000
  63      0.000000000000
  64      0.000000000000
  65      0.000000000000
  66      0.000000000000
  67      0.000000000000
  68      0.000000000000
  69      0.000000000000
  70      0.000000000000
  71      0.000000000000
  72      0.000000000000
  73      0.000000000000
  74      0.000000000000
  75      0.000000000000
  76      0.000000000000
  77      0.000000000000
  78      0.000000000000
  79      0.000000000000
  80      0.000000000000
  81      0.000000000000
  82      0.000000000000
  83      0.000000000000
  84      0.000000000000
  85      0.000000000000
  86      0.000000000000
  87      0.000000000000
  88      0.000000000000
  89      0.000000000000
 Ene=   0.13413511348430E+01
 Spin= Alpha
 Occup=    0.000000
   1      0.000018607659
   2      0.000013668677
   3     -0.000231503091
   4     -0.000413957823
   5      0.000352346636
   6      0.000861446833
   7     -0.000981897307
   8      0.006138188278
   9     -0.000217721343
  10     -0.000314866647
  11      0.000093769969
  12     -0.000057599362
  13      0.000199249067
  14     -0.000064841859
  15      0.000041221781
  16      0.001381841793
  17     -0.000392816340
  18      0.000229922205
  19     -0.001907912241
  20      0.000565715217
  21     -0.000294484376
  22      0.013477022456
  23      0.073268324309
  24      0.113972887553
  25     -0.010389731117
  26     -0.015936409428
  27     -0.017030562863
  28     -0.094272657580
  29     -0.147020152170
  30      0.013064449084
  31      0.020135346992
  32      0.002879929775
  33     -0.002882642076
  34      0.001199882618
  35      0.000012543671
  36      0.000097191636
  37      0.000050389731
  38      0.000441927839
  39      0.000180916409
  40     -0.000096468144
  41     -0.000012264185
  42     -0.000254610879
  43      0.002848322677
  44     -0.009787343051
  45      0.044218895822
  46      0.069531935515
  47      0.005347573368
  48     -0.291808927859
  49     -0.450129184958
  50     -0.034525517536
  51      0.013455289766
  52      0.050820854895
  53      0.104153115095
  54     -0.181515928783
  55     -0.086867261273
  56     -0.000303426345
  57      0.001834407003
  58     -0.000159696110
  59     -0.046675727061
  60     -0.068314297953
  61     -0.005390358566
  62      0.296568993367
  63      0.449059262048
  64      0.037645673425
  65      0.019440321225
  66      0.098221304108
  67      0.128691201496
  68      0.154737721246
  69      0.057182180732
  70      0.096150351567
  71      0.190236429806
  72     -0.326298902661
  73      0.106059925779
  74      0.225983239231
  75     -0.094654354817
  76     -0.188916503011
  77      0.244261209790
  78     -0.231294933351
  79     -0.236360347561
  80      0.096108962635
  81      0.189902559099
  82     -0.165208510817
  83      0.222112355771
  84     -0.302152357929
  85     -0.096265637447
  86     -0.190280248169
  87      0.246786524172
  88     -0.095571258384
  89      0.312971553144
 Ene=   0.13413511348430E+01
 Spin= Alpha
 Occup=    0.000000
   1      0.000000000000
   2      0.000000000000
   3      0.000000000000
   4      0.000000000000
   5      0.000000000000
   6      0.000000000000
   7      0.000000000000
   8      0.000000000000
   9      0.000000000000
  10      0.000000000000
  11      0.000000000000
  12      0.000000000000
  13      0.000000000000
  14      0.000000000000
  15      0.000000000000
  16      0.000000000000
  17      0.000000000000
  18      0.000000000000
  19      0.000000000000
  20      0.000000000000
  21      0.000000000000
  22      0.000000000000
  23      0.000000000000
  24      0.000000000000
  25      0.000000000000
  26      0.000000000000
  27      0.000000000000
  28      0.000000000000
  29      0.000000000000
  30      0.000000000000
  31      0.000000000000
  32      0.000000000000
  33      0.000000000000
  34      0.000000000000
  35      0.000000000000
  36      0.000000000000
  37      0.000000000000
  38      0.000000000000
  39      0.000000000000
  40      0.000000000000
  41      0.000000000000
  42      0.000000000000
  43      0.000000000000
  44      0.000000000000
  45      0.000000000000
  46      0.000000000000
  47      0.000000000000
  48      0.000000000000
  49      0.000000000000
  50      0.000000000000
  51      0.000000000000
  52      0.000000000000
  53      0.000000000000
  54      0.000000000000
  55      0.000000000000
  56      0.000000000000
  57      0.000000000000
  58      0.000000000000
  59      0.000000000000
  60      0.000000000000
  61      0.000000000000
  62      0.000000000000
  63      0.000000000000
  64      0.000000000000
  65      0.000000000000
  66      0.000000000000
  67      0.000000000000
  68      0.000000000000
  69      0.000000000000
  70      0.000000000000
  71      0.000000000000
  72      0.000000000000
  73      0.000000000000
  74      0.000000000000
  75      0.000000000000
  76      0.000000000000
  77      0.000000000000
  78      0.000000000000
  79      0.000000000000
  80      0.000000000000
  81      0.000000000000
  82      0.000000000000
  83      0.000000000000
  84      0.000000000000
  85      0.000000000000
  86      0.000000000000
  87      0.000000000000
  88      0.000000000000
  89      0.000000000000
 Ene=   0.13961031972419E+01
 Spin= Alpha
 Occup=    0.000000
   1      0.000000000000
   2      0.000000000000
   3      0.000000000000
   4      0.000000000000
   5      0.000000000000
   6      0.000000000000
   7      0.000000000000
   8      0.000000000000
   9      0.000000000000
  10      0.000000000000
  11      0.000000000000
  12      0.000000000000
  13      0.000000000000
  14      0.000000000000
  15      0.000000000000
  16      0.000000000000
  17      0.000000000000
  18      0.000000000000
  19      0.000000000000
  20      0.000000000000
  21      0.000000000000
  22      0.000000000000
  23      0.000000000000
  24      0.000000000000
  25      0.000000000000
  26      0.000000000000
  27      0.000000000000
  28      0.000000000000
  29      0.000000000000
  30      0.000000000000
  31      0.000000000000
  32      0.000000000000
  33      0.000000000000
  34      0.000000000000
  35      0.000000000000
  36      0.000000000000
  37      0.000000000000
  38      0.000000000000
  39      0.000000000000
  40      0.000000000000
  41      0.000000000000
  42      0.000000000000
  43      0.000000000000
  44      0.000000000000
  45      0.000000000000
  46      0.000000000000
  47      0.000000000000
  48      0.000000000000
  49      0.000000000000
  50      0.000000000000
  51      0.000000000000
  52      0.000000000000
  53      0.000000000000
  54      0.000000000000
  55      0.000000000000
  56      0.000000000000
  57      0.000000000000
  58      0.000000000000
  59      0.000000000000
  60      0.000000000000
  61      0.000000000000
  62      0.000000000000
  63      0.000000000000
  64      0.000000000000
  65      0.000000000000
  66      0.000000000000
  67      0.000000000000
  68      0.000000000000
  69      0.000000000000
  70      0.000000000000
  71      0.000000000000
  72      0.000000000000
  73      0.000000000000
  74      0.000000000000
  75      0.000000000000
  76      0.000000000000
  77      0.000000000000
  78      0.000000000000
  79      0.000000000000
  80      0.000000000000
  81      0.000000000000
  82      0.000000000000
  83      0.000000000000
  84      0.000000000000
  85      0.000000000000
  86      0.000000000000
  87      0.000000000000
  88      0.000000000000
  89      0.000000000000
 Ene=   0.13961031972419E+01
 Spin= Alpha
 Occup=    0.000000
   1     -0.000033509808
   2     -0.000023461532
   3      0.000308452854
   4      0.000517181390
   5     -0.000391747538
   6     -0.001139986578
   7      0.000886166124
   8      0.000849372291
   9     -0.000272701118
  10     -0.000113843146
  11     -0.000680319957
  12      0.000329345647
  13      0.000086511136
  14      0.000445350002
  15     -0.000212009012
  16      0.000404064017
  17      0.002901202938
  18     -0.001424748522
  19     -0.000326512458
  20     -0.003745595856
  21      0.001884681120
  22      0.066352472488
  23      0.306450210915
  24      0.479978603206
  25     -0.047278629188
  26     -0.062103893813
  27     -0.102664479066
  28     -0.474124636697
  29     -0.741957992871
  30      0.073298018617
  31      0.096228875340
  32     -0.000550424862
  33     -0.000934632302
  34     -0.000144652488
  35      0.000106527077
  36      0.000687149328
  37      0.000397972736
  38      0.003130627947
  39      0.001298436896
  40     -0.000588029601
  41     -0.000207168494
  42      0.000108925239
  43      0.001422393142
  44     -0.009141949923
  45     -0.048641078203
  46     -0.076702376921
  47     -0.005590831553
  48      0.433141026612
  49      0.665483969724
  50      0.054033971734
  51     -0.008713111934
  52     -0.038132016739
  53     -0.061588675452
  54     -0.000708389334
  55      0.003914288891
  56      0.000058123595
  57     -0.001602365183
  58      0.008707593766
  59      0.048608474489
  60      0.075278153744
  61      0.006901483239
  62     -0.428340393184
  63     -0.660230159992
  64     -0.053389019299
  65     -0.008832273908
  66     -0.039553726976
  67     -0.061249814333
  68      0.012857374270
  69      0.011452446630
  70     -0.153305913161
  71     -0.253803487210
  72      0.013650815132
  73      0.190966186124
  74     -0.157822273430
  75      0.156279264297
  76      0.256873652117
  77      0.159964126116
  78      0.067996463834
  79      0.180577731137
  80     -0.152934868644
  81     -0.254499273774
  82     -0.195508864112
  83     -0.066752750634
  84      0.128823222177
  85      0.150676346312
  86      0.251001372771
  87      0.026764493789
  88     -0.189324886428
  89     -0.148765454155
 Ene=   0.14303620444565E+01
 Spin= Alpha
 Occup=    0.000000
   1      0.000000000000
   2      0.000000000000
   3      0.000000000000
   4      0.000000000000
   5      0.000000000000
   6      0.000000000000
   7      0.000000000000
   8      0.000000000000
   9      0.000000000000
  10      0.000000000000
  11      0.000000000000
  12      0.000000000000
  13      0.000000000000
  14      0.000000000000
  15      0.000000000000
  16      0.000000000000
  17      0.000000000000
  18      0.000000000000
  19      0.000000000000
  20      0.000000000000
  21      0.000000000000
  22      0.000000000000
  23      0.000000000000
  24      0.000000000000
  25      0.000000000000
  26      0.000000000000
  27      0.000000000000
  28      0.000000000000
  29      0.000000000000
  30      0.000000000000
  31      0.000000000000