[Molden Format]
[Title]
generated by TRESC, real part1 of MOs of job Ni0-C2H4
 
[Atoms] AU
Ni   1  28    2.0327243480    6.6651129323   -0.4637853482
 C   2   6    4.4866582262    4.9116344944    1.3008835560
 C   3   6    4.8771137450    4.8741236186   -1.3947805326
 H   4   1    5.7310700770    6.0706468704    2.4997637439
 H   5   1    3.8369470533    3.1858198160    2.2645095603
 H   6   1    4.5308414173    3.1179949920   -2.4558991994
 H   7   1    6.4130479072    6.0088908466   -2.2212746715
[GTO]
  1 0
 s  6 1.0
    71074.8032110000        0.0049184150
    10672.0209410000        0.0200173975
     2428.1389007000        0.0784715325
      685.5359514800        0.2482002663
      223.1007286300        0.4665280195
       76.8420140400        0.3374151926
 s  1 1.0
      148.7112201600        1.0000000000
 s  1 1.0
       17.4591549900        1.0000000000
 s  1 1.0
        7.1625280700        1.0000000000
 s  1 1.0
       12.5561371300        1.0000000000
 s  1 1.0
        2.0735740500        1.0000000000
 s  1 1.0
        0.8538264100        1.0000000000
 s  1 1.0
        0.1053676600        1.0000000000
 s  1 1.0
        0.0381340900        1.0000000000
 p  5 1.0
      916.7360866200        0.0107030171
      216.0613991300        0.0711467350
       68.3839148200        0.2646675976
       24.5938439500        0.5093159720
        9.1392960200        0.3283291628
 p  1 1.0
        4.7193371700        1.0000000000
 p  1 1.0
        1.8161849200        1.0000000000
 p  1 1.0
        0.6784075100        1.0000000000
 d  4 1.0
       47.0938321100        0.0346401353
       13.1464639700        0.1833736831
        4.4170548900        0.4455621030
        1.4771565100        0.5627236040
 d  1 1.0
        0.4373592200        1.0000000000
 p  1 1.0
        0.1465880000        1.0000000000
 f  1 1.0
        2.1740000000        1.0000000000
 
  2 0
 s  5 1.0
     1238.4016938000        0.0059599745
      186.2900499200        0.0422621111
       42.2511763500        0.1866575214
       11.6765579300        0.4675815865
        3.5930506500        0.4422897287
 s  1 1.0
        0.4024514700        1.0000000000
 s  1 1.0
        0.1309018300        1.0000000000
 p  3 1.0
        9.4680970600        0.0570294585
        2.0103545100        0.3130471495
        0.5477100500        0.7605135301
 p  1 1.0
        0.1526861400        1.0000000000
 d  1 1.0
        0.8000000000        1.0000000000
 
  3 0
 s  5 1.0
     1238.4016938000        0.0059599745
      186.2900499200        0.0422621111
       42.2511763500        0.1866575214
       11.6765579300        0.4675815865
        3.5930506500        0.4422897287
 s  1 1.0
        0.4024514700        1.0000000000
 s  1 1.0
        0.1309018300        1.0000000000
 p  3 1.0
        9.4680970600        0.0570294585
        2.0103545100        0.3130471495
        0.5477100500        0.7605135301
 p  1 1.0
        0.1526861400        1.0000000000
 d  1 1.0
        0.8000000000        1.0000000000
 
  4 0
 s  3 1.0
       13.0107010000        0.0391282527
        1.9622572000        0.2855840539
        0.4445379600        0.7689908602
 s  1 1.0
        0.1219496200        1.0000000000
 p  1 1.0
        0.8000000000        1.0000000000
 
  5 0
 s  3 1.0
       13.0107010000        0.0391282527
        1.9622572000        0.2855840539
        0.4445379600        0.7689908602
 s  1 1.0
        0.1219496200        1.0000000000
 p  1 1.0
        0.8000000000        1.0000000000
 
  6 0
 s  3 1.0
       13.0107010000        0.0391282527
        1.9622572000        0.2855840539
        0.4445379600        0.7689908602
 s  1 1.0
        0.1219496200        1.0000000000
 p  1 1.0
        0.8000000000        1.0000000000
 
  7 0
 s  3 1.0
       13.0107010000        0.0391282527
        1.9622572000        0.2855840539
        0.4445379600        0.7689908602
 s  1 1.0
        0.1219496200        1.0000000000
 p  1 1.0
        0.8000000000        1.0000000000
 
[5D]
[7F]
[9G]
[MO]
 Ene=  -0.29888313162410E+03
 Spin= Alpha
 Occup=   -0.000000
   1      0.000000000000
   2      0.000000000000
   3      0.000000000000
   4      0.000000000000
   5      0.000000000000
   6      0.000000000000
   7      0.000000000000
   8      0.000000000000
   9      0.000000000000
  10      0.000000000000
  11      0.000000000000
  12      0.000000000000
  13      0.000000000000
  14      0.000000000000
  15      0.000000000000
  16      0.000000000000
  17      0.000000000000
  18      0.000000000000
  19      0.000000000000
  20      0.000000000000
  21      0.000000000000
  22      0.000000000000
  23      0.000000000000
  24      0.000000000000
  25      0.000000000000
  26      0.000000000000
  27      0.000000000000
  28      0.000000000000
  29      0.000000000000
  30      0.000000000000
  31      0.000000000000
  32      0.000000000000
  33      0.000000000000
  34      0.000000000000
  35      0.000000000000
  36      0.000000000000
  37      0.000000000000
  38      0.000000000000
  39      0.000000000000
  40      0.000000000000
  41      0.000000000000
  42      0.000000000000
  43      0.000000000000
  44      0.000000000000
  45      0.000000000000
  46      0.000000000000
  47      0.000000000000
  48      0.000000000000
  49      0.000000000000
  50      0.000000000000
  51      0.000000000000
  52      0.000000000000
  53      0.000000000000
  54      0.000000000000
  55      0.000000000000
  56      0.000000000000
  57      0.000000000000
  58      0.000000000000
  59      0.000000000000
  60      0.000000000000
  61      0.000000000000
  62      0.000000000000
  63      0.000000000000
  64      0.000000000000
  65      0.000000000000
  66      0.000000000000
  67      0.000000000000
  68      0.000000000000
  69      0.000000000000
  70      0.000000000000
  71      0.000000000000
  72      0.000000000000
  73      0.000000000000
  74      0.000000000000
  75      0.000000000000
  76      0.000000000000
  77      0.000000000000
  78      0.000000000000
  79      0.000000000000
  80      0.000000000000
  81      0.000000000000
  82      0.000000000000
  83      0.000000000000
  84      0.000000000000
  85      0.000000000000
  86      0.000000000000
  87      0.000000000000
  88      0.000000000000
  89      0.000000000000
 Ene=  -0.29888313162410E+03
 Spin= Alpha
 Occup=    1.000000
   1     -0.865026864088
   2     -0.122702883854
   3     -0.079704184220
   4     -0.011724381076
   5      0.061114034853
   6      0.000843506950
   7     -0.000202668912
   8      0.000039771179
   9     -0.000013944642
  10      0.000006981881
  11     -0.000004680162
  12      0.000001106567
  13     -0.000006339772
  14      0.000004247505
  15     -0.000000996369
  16      0.000005466671
  17     -0.000003660723
  18      0.000000852973
  19     -0.000004178193
  20      0.000002796613
  21     -0.000000648453
  22     -0.000000060751
  23     -0.000000092315
  24      0.000000182513
  25     -0.000000556760
  26      0.000001319270
  27     -0.000000066164
  28      0.000000196301
  29     -0.000000290665
  30      0.000000840938
  31     -0.000002004192
  32      0.000008174776
  33     -0.000005477251
  34      0.000001310131
  35     -0.000000055807
  36     -0.000000131781
  37      0.000000095200
  38      0.000000032348
  39     -0.000000008400
  40      0.000000016976
  41      0.000000107925
  42      0.000000002177
  43     -0.000000661951
  44     -0.000011054383
  45      0.000000333637
  46     -0.000000235042
  47      0.000000210050
  48      0.000002835094
  49     -0.000001804439
  50     -0.000001144245
  51      0.000000147723
  52      0.000000592673
  53     -0.000000519646
  54      0.000000487641
  55     -0.000001259658
  56      0.000000000221
  57     -0.000000709757
  58     -0.000010678286
  59      0.000000366642
  60     -0.000000233302
  61     -0.000000098878
  62      0.000002343209
  63     -0.000001647167
  64      0.000002155113
  65     -0.000000146518
  66     -0.000000408717
  67      0.000000158543
  68      0.000000641487
  69     -0.000001401265
  70      0.000000869937
  71      0.000002769265
  72     -0.000000280806
  73     -0.000000352959
  74      0.000000141005
  75      0.000000861704
  76      0.000002738111
  77      0.000000202402
  78      0.000000376400
  79      0.000000203125
  80      0.000000871354
  81      0.000002785318
  82      0.000000253710
  83      0.000000382122
  84     -0.000000149555
  85      0.000000852656
  86      0.000002710023
  87     -0.000000213574
  88     -0.000000379910
  89     -0.000000219442
 Ene=  -0.35584961300275E+02
 Spin= Alpha
 Occup=    1.000000
   1     -0.288570997223
   2     -0.159234068794
   3      0.599229636616
   4      0.446046715124
   5      0.062932287839
   6      0.024779106284
   7     -0.004278318864
   8      0.000944749983
   9     -0.000368861027
  10     -0.000174544442
  11      0.000118144976
  12     -0.000032168701
  13     -0.000000605128
  14      0.000000543746
  15     -0.000000625080
  16      0.000006261381
  17     -0.000004191554
  18      0.000001008822
  19     -0.000043818606
  20      0.000029319649
  21     -0.000006794357
  22      0.000014805455
  23      0.000010138790
  24     -0.000024744681
  25      0.000078735085
  26     -0.000185978984
  27     -0.000002279860
  28     -0.000001508851
  29      0.000004577196
  30     -0.000015910262
  31      0.000037381890
  32      0.000141894458
  33     -0.000095144157
  34      0.000023353523
  35     -0.000000423144
  36     -0.000000956742
  37      0.000000691688
  38      0.000000243699
  39     -0.000000086566
  40      0.000000114078
  41      0.000000740628
  42     -0.000000322257
  43     -0.000013142968
  44     -0.000241978322
  45      0.000003395123
  46     -0.000002501975
  47      0.000003627936
  48      0.000054262033
  49     -0.000033314703
  50     -0.000038760399
  51      0.000004169160
  52      0.000015623772
  53     -0.000013475306
  54      0.000011599817
  55     -0.000030279807
  56     -0.000000368212
  57     -0.000014416478
  58     -0.000230003664
  59      0.000003912749
  60     -0.000002395680
  61     -0.000002380011
  62      0.000039092295
  63     -0.000028963176
  64      0.000059309753
  65     -0.000003675905
  66     -0.000011321465
  67      0.000004783453
  68      0.000015730797
  69     -0.000034032833
  70      0.000019173236
  71      0.000072975981
  72     -0.000006547918
  73     -0.000008947662
  74      0.000003963923
  75      0.000018994207
  76      0.000072218610
  77      0.000005319791
  78      0.000008982067
  79      0.000005490033
  80      0.000019131776
  81      0.000073276806
  82      0.000006795773
  83      0.000009096204
  84     -0.000004070749
  85      0.000018711820
  86      0.000071436233
  87     -0.000004760332
  88     -0.000009636366
  89     -0.000005786980
 Ene=  -0.35584961300275E+02
 Spin= Alpha
 Occup=    0.000000
   1      0.000000000000
   2      0.000000000000
   3      0.000000000000
   4      0.000000000000
   5      0.000000000000
   6      0.000000000000
   7      0.000000000000
   8      0.000000000000
   9      0.000000000000
  10      0.000000000000
  11      0.000000000000
  12      0.000000000000
  13      0.000000000000
  14      0.000000000000
  15      0.000000000000
  16      0.000000000000
  17      0.000000000000
  18      0.000000000000
  19      0.000000000000
  20      0.000000000000
  21      0.000000000000
  22      0.000000000000
  23      0.000000000000
  24      0.000000000000
  25      0.000000000000
  26      0.000000000000
  27      0.000000000000
  28      0.000000000000
  29      0.000000000000
  30      0.000000000000
  31      0.000000000000
  32      0.000000000000
  33      0.000000000000
  34      0.000000000000
  35      0.000000000000
  36      0.000000000000
  37      0.000000000000
  38      0.000000000000
  39      0.000000000000
  40      0.000000000000
  41      0.000000000000
  42      0.000000000000
  43      0.000000000000
  44      0.000000000000
  45      0.000000000000
  46      0.000000000000
  47      0.000000000000
  48      0.000000000000
  49      0.000000000000
  50      0.000000000000
  51      0.000000000000
  52      0.000000000000
  53      0.000000000000
  54      0.000000000000
  55      0.000000000000
  56      0.000000000000
  57      0.000000000000
  58      0.000000000000
  59      0.000000000000
  60      0.000000000000
  61      0.000000000000
  62      0.000000000000
  63      0.000000000000
  64      0.000000000000
  65      0.000000000000
  66      0.000000000000
  67      0.000000000000
  68      0.000000000000
  69      0.000000000000
  70      0.000000000000
  71      0.000000000000
  72      0.000000000000
  73      0.000000000000
  74      0.000000000000
  75      0.000000000000
  76      0.000000000000
  77      0.000000000000
  78      0.000000000000
  79      0.000000000000
  80      0.000000000000
  81      0.000000000000
  82      0.000000000000
  83      0.000000000000
  84      0.000000000000
  85      0.000000000000
  86      0.000000000000
  87      0.000000000000
  88      0.000000000000
  89      0.000000000000
 Ene=  -0.31179632348648E+02
 Spin= Alpha
 Occup=    1.000000
   1      0.000052527734
   2      0.000030429384
   3      0.000040179636
   4     -0.000017079164
   5     -0.000252696981
   6     -0.000029132863
   7      0.000042274226
   8      0.000079260870
   9     -0.000200535927
  10     -0.814702402828
  11      0.545366293247
  12     -0.123463543458
  13     -0.013123758428
  14      0.008785152123
  15     -0.001988542985
  16     -0.008675642947
  17      0.005807393462
  18     -0.001315089446
  19      0.002071980604
  20     -0.001386834324
  21      0.000314276211
  22     -0.000020511046
  23      0.000005619830
  24     -0.000000427939
  25     -0.000002283999
  26      0.000004165082
  27     -0.000014717520
  28      0.000004935954
  29     -0.000003794728
  30      0.000011796359
  31     -0.000027922995
  32     -0.000472928874
  33      0.000316665567
  34     -0.000073018697
  35      0.000022016268
  36      0.000053129848
  37     -0.000037031031
  38     -0.000011825802
  39      0.000014134646
  40      0.000004935126
  41      0.000019488340
  42      0.000012162381
  43      0.000048742061
  44      0.000002324260
  45      0.000038024520
  46     -0.000026474666
  47      0.000017970865
  48     -0.000011790614
  49      0.000007344566
  50      0.000024578371
  51      0.000008430910
  52     -0.000061657229
  53      0.000046182839
  54     -0.000029156925
  55      0.000080392488
  56      0.000012465994
  57      0.000049004286
  58     -0.000008224231
  59      0.000042968577
  60     -0.000027479386
  61     -0.000005659359
  62     -0.000003802431
  63      0.000002370265
  64     -0.000032189402
  65      0.000036825062
  66      0.000037458376
  67     -0.000021357239
  68     -0.000043527200
  69      0.000093092973
  70     -0.000022042919
  71      0.000074247634
  72     -0.000000165033
  73      0.000010486841
  74     -0.000009978859
  75     -0.000021693003
  76      0.000075537885
  77     -0.000009038181
  78     -0.000002773618
  79     -0.000011159997
  80     -0.000022023924
  81      0.000074146123
  82     -0.000011809293
  83     -0.000002563349
  84      0.000008320396
  85     -0.000021352897
  86      0.000076792448
  87     -0.000003408280
  88      0.000011410977
  89      0.000009643995
 Ene=  -0.31179632348648E+02
 Spin= Alpha
 Occup=   -0.000000
   1      0.000000000000
   2      0.000000000000
   3      0.000000000000
   4      0.000000000000
   5      0.000000000000
   6      0.000000000000
   7      0.000000000000
   8      0.000000000000
   9      0.000000000000
  10      0.000000000000
  11      0.000000000000
  12      0.000000000000
  13      0.000000000000
  14      0.000000000000
  15      0.000000000000
  16      0.000000000000
  17      0.000000000000
  18      0.000000000000
  19      0.000000000000
  20      0.000000000000
  21      0.000000000000
  22      0.000000000000
  23      0.000000000000
  24      0.000000000000
  25      0.000000000000
  26      0.000000000000
  27      0.000000000000
  28      0.000000000000
  29      0.000000000000
  30      0.000000000000
  31      0.000000000000
  32      0.000000000000
  33      0.000000000000
  34      0.000000000000
  35      0.000000000000
  36      0.000000000000
  37      0.000000000000
  38      0.000000000000
  39      0.000000000000
  40      0.000000000000
  41      0.000000000000
  42      0.000000000000
  43      0.000000000000
  44      0.000000000000
  45      0.000000000000
  46      0.000000000000
  47      0.000000000000
  48      0.000000000000
  49      0.000000000000
  50      0.000000000000
  51      0.000000000000
  52      0.000000000000
  53      0.000000000000
  54      0.000000000000
  55      0.000000000000
  56      0.000000000000
  57      0.000000000000
  58      0.000000000000
  59      0.000000000000
  60      0.000000000000
  61      0.000000000000
  62      0.000000000000
  63      0.000000000000
  64      0.000000000000
  65      0.000000000000
  66      0.000000000000
  67      0.000000000000
  68      0.000000000000
  69      0.000000000000
  70      0.000000000000
  71      0.000000000000
  72      0.000000000000
  73      0.000000000000
  74      0.000000000000
  75      0.000000000000
  76      0.000000000000
  77      0.000000000000
  78      0.000000000000
  79      0.000000000000
  80      0.000000000000
  81      0.000000000000
  82      0.000000000000
  83      0.000000000000
  84      0.000000000000
  85      0.000000000000
  86      0.000000000000
  87      0.000000000000
  88      0.000000000000
  89      0.000000000000
 Ene=  -0.31172599930382E+02
 Spin= Alpha
 Occup=   -0.000000
   1      0.000000000000
   2      0.000000000000
   3      0.000000000000
   4      0.000000000000
   5      0.000000000000
   6      0.000000000000
   7      0.000000000000
   8      0.000000000000
   9      0.000000000000
  10      0.000000000000
  11      0.000000000000
  12      0.000000000000
  13      0.000000000000
  14      0.000000000000
  15      0.000000000000
  16      0.000000000000
  17      0.000000000000
  18      0.000000000000
  19      0.000000000000
  20      0.000000000000
  21      0.000000000000
  22      0.000000000000
  23      0.000000000000
  24      0.000000000000
  25      0.000000000000
  26      0.000000000000
  27      0.000000000000
  28      0.000000000000
  29      0.000000000000
  30      0.000000000000
  31      0.000000000000
  32      0.000000000000
  33      0.000000000000
  34      0.000000000000
  35      0.000000000000
  36      0.000000000000
  37      0.000000000000
  38      0.000000000000
  39      0.000000000000
  40      0.000000000000
  41      0.000000000000
  42      0.000000000000
  43      0.000000000000
  44      0.000000000000
  45      0.000000000000
  46      0.000000000000
  47      0.000000000000
  48      0.000000000000
  49      0.000000000000
  50      0.000000000000
  51      0.000000000000
  52      0.000000000000
  53      0.000000000000
  54      0.000000000000
  55      0.000000000000
  56      0.000000000000
  57      0.000000000000
  58      0.000000000000
  59      0.000000000000
  60      0.000000000000
  61      0.000000000000
  62      0.000000000000
  63      0.000000000000
  64      0.000000000000
  65      0.000000000000
  66      0.000000000000
  67      0.000000000000
  68      0.000000000000
  69      0.000000000000
  70      0.000000000000
  71      0.000000000000
  72      0.000000000000
  73      0.000000000000
  74      0.000000000000
  75      0.000000000000
  76      0.000000000000
  77      0.000000000000
  78      0.000000000000
  79      0.000000000000
  80      0.000000000000
  81      0.000000000000
  82      0.000000000000
  83      0.000000000000
  84      0.000000000000
  85      0.000000000000
  86      0.000000000000
  87      0.000000000000
  88      0.000000000000
  89      0.000000000000
 Ene=  -0.31172599930381E+02
 Spin= Alpha
 Occup=    1.000000
   1     -0.000001714270
   2     -0.000000961481
   3      0.000003579963
   4      0.000002483263
   5      0.000000632985
   6      0.000000029558
   7     -0.000000167603
   8      0.000001621427
   9      0.000000363138
  10     -0.138919258682
  11      0.013936912025
  12      0.978254435975
  13     -0.002231528670
  14      0.000224060248
  15      0.015712765672
  16     -0.001470045484
  17      0.000147220683
  18      0.010353348844
  19      0.000336672341
  20     -0.000033540250
  21     -0.002371811694
  22      0.000004437146
  23      0.000016686643
  24     -0.000011274257
  25     -0.000002423785
  26      0.000002086511
  27     -0.000004703934
  28     -0.000016724060
  29      0.000011272048
  30      0.000002590034
  31     -0.000002233389
  32     -0.000065513055
  33      0.000005927762
  34      0.000470615948
  35      0.000040818654
  36     -0.000017917802
  37      0.000006095742
  38     -0.000005734390
  39      0.000017472472
  40      0.000000936191
  41     -0.000003616922
  42     -0.000006569365
  43     -0.000023126484
  44      0.000371659391
  45     -0.000026800910
  46      0.000018406551
  47     -0.000010215300
  48      0.000042413533
  49     -0.000007708993
  50     -0.000238958674
  51     -0.000011284395
  52      0.000036045825
  53     -0.000025047377
  54      0.000011655592
  55     -0.000034300653
  56      0.000006601089
  57      0.000022634151
  58     -0.000374126686
  59      0.000028832863
  60     -0.000018656423
  61     -0.000001677739
  62      0.000027664204
  63     -0.000000458497
  64     -0.000240986459
  65      0.000026979381
  66      0.000019946128
  67     -0.000013103017
  68     -0.000019308223
  69      0.000040522365
  70      0.000006378891
  71     -0.000034785631
  72      0.000000748375
  73     -0.000010981448
  74      0.000017499458
  75      0.000006487584
  76     -0.000034133714
  77      0.000008982547
  78      0.000001678520
  79      0.000018483804
  80     -0.000006409196
  81      0.000033520506
  82     -0.000013776253
  83     -0.000001179342
  84      0.000015044697
  85     -0.000005790887
  86      0.000035226806
  87     -0.000005951617
  88      0.000011593975
  89      0.000016134831
 Ene=  -0.31163540901331E+02
 Spin= Alpha
 Occup=    1.000000
   1     -0.000000224692
   2     -0.000000125520
   3      0.000000548583
   4      0.000000353189
   5     -0.000000035877
   6     -0.000000022655
   7     -0.000000000980
   8      0.000000617877
   9     -0.000000408555
  10     -0.541682453557
  11     -0.823956042234
  12     -0.065184161896
  13     -0.008645477014
  14     -0.013150786246
  15     -0.001040425890
  16     -0.005743724566
  17     -0.008736531656
  18     -0.000691059972
  19      0.001295284954
  20      0.001969919931
  21      0.000155737925
  22      0.000000577584
  23      0.000004352467
  24      0.000002599301
  25      0.000029933702
  26      0.000012571089
  27     -0.000000327926
  28     -0.000002440241
  29     -0.000001303290
  30     -0.000015801002
  31     -0.000006735089
  32     -0.000273109977
  33     -0.000415690193
  34     -0.000033167644
  35     -0.000003941165
  36     -0.000013635017
  37     -0.000019608070
  38     -0.000008481268
  39      0.000005193063
  40     -0.000066753264
  41      0.000012138823
  42     -0.000000003593
  43     -0.000000133675
  44      0.000002524253
  45     -0.000002979225
  46     -0.000004491690
  47     -0.000000382591
  48      0.000008662879
  49      0.000012921846
  50      0.000000034770
  51      0.000000209887
  52      0.000001635545
  53      0.000001368717
  54      0.000007839630
  55      0.000003292918
  56      0.000000007597
  57      0.000000537729
  58     -0.000004305706
  59     -0.000002911475
  60     -0.000004537322
  61     -0.000000319380
  62      0.000007891665
  63      0.000011432976
  64      0.000000157038
  65      0.000000160797
  66      0.000000653453
  67     -0.000000329450
  68      0.000008448982
  69      0.000003618628
  70     -0.000008787841
  71      0.000049480104
  72     -0.000017141767
  73      0.000007353858
  74     -0.000009479951
  75      0.000008615562
  76     -0.000049868412
  77      0.000012913513
  78     -0.000013889340
  79      0.000009116611
  80      0.000008745587
  81     -0.000049694912
  82      0.000014976576
  83     -0.000013927216
  84     -0.000004410843
  85     -0.000008173292
  86      0.000051687940
  87     -0.000019570172
  88      0.000007804562
  89      0.000004280846
 Ene=  -0.31163540901331E+02
 Spin= Alpha
 Occup=    0.000000
   1      0.000000000000
   2      0.000000000000
   3      0.000000000000
   4      0.000000000000
   5      0.000000000000
   6      0.000000000000
   7      0.000000000000
   8      0.000000000000
   9      0.000000000000
  10      0.000000000000
  11      0.000000000000
  12      0.000000000000
  13      0.000000000000
  14      0.000000000000
  15      0.000000000000
  16      0.000000000000
  17      0.000000000000
  18      0.000000000000
  19      0.000000000000
  20      0.000000000000
  21      0.000000000000
  22      0.000000000000
  23      0.000000000000
  24      0.000000000000
  25      0.000000000000
  26      0.000000000000
  27      0.000000000000
  28      0.000000000000
  29      0.000000000000
  30      0.000000000000
  31      0.000000000000
  32      0.000000000000
  33      0.000000000000
  34      0.000000000000
  35      0.000000000000
  36      0.000000000000
  37      0.000000000000
  38      0.000000000000
  39      0.000000000000
  40      0.000000000000
  41      0.000000000000
  42      0.000000000000
  43      0.000000000000
  44      0.000000000000
  45      0.000000000000
  46      0.000000000000
  47      0.000000000000
  48      0.000000000000
  49      0.000000000000
  50      0.000000000000
  51      0.000000000000
  52      0.000000000000
  53      0.000000000000
  54      0.000000000000
  55      0.000000000000
  56      0.000000000000
  57      0.000000000000
  58      0.000000000000
  59      0.000000000000
  60      0.000000000000
  61      0.000000000000
  62      0.000000000000
  63      0.000000000000
  64      0.000000000000
  65      0.000000000000
  66      0.000000000000
  67      0.000000000000
  68      0.000000000000
  69      0.000000000000
  70      0.000000000000
  71      0.000000000000
  72      0.000000000000
  73      0.000000000000
  74      0.000000000000
  75      0.000000000000
  76      0.000000000000
  77      0.000000000000
  78      0.000000000000
  79      0.000000000000
  80      0.000000000000
  81      0.000000000000
  82      0.000000000000
  83      0.000000000000
  84      0.000000000000
  85      0.000000000000
  86      0.000000000000
  87      0.000000000000
  88      0.000000000000
  89      0.000000000000
 Ene=  -0.10197249223805E+02
 Spin= Alpha
 Occup=    1.000000
   1     -0.000000269664
   2     -0.000001851261
   3      0.000133573822
   4      0.000185822358
   5     -0.000270684597
   6      0.000117271983
   7     -0.000748424064
   8     -0.011916310749
   9      0.001132131737
  10     -0.000062792409
  11      0.000042907297
  12     -0.000020404594
  13      0.000412560174
  14     -0.000282339273
  15      0.000139415298
  16     -0.001036554817
  17      0.000710565353
  18     -0.000363467763
  19      0.000777562382
  20     -0.000539379984
  21      0.000340009428
  22      0.000139043555
  23     -0.000109861741
  24      0.000083536119
  25     -0.000144880357
  26      0.000357165617
  27     -0.000609553616
  28      0.000432449148
  29     -0.000325955046
  30      0.000600645715
  31     -0.001476268632
  32     -0.004505839608
  33      0.003102403896
  34     -0.001765137787
  35     -0.000038641024
  36     -0.000014891394
  37      0.000007808101
  38      0.000019481256
  39     -0.000073336455
  40     -0.000033080822
  41     -0.000154450966
  42     -0.861710087373
  43     -0.047648416212
  44      0.038913510337
  45      0.000022163171
  46      0.000118331520
  47     -0.001610557323
  48     -0.002553993414
  49      0.001896941520
  50     -0.003081359382
  51      0.000189396124
  52     -0.000778279583
  53      0.000334407038
  54      0.000775926906
  55     -0.001650935170
  56     -0.481963470532
  57     -0.025388524917
  58      0.013769472647
  59     -0.000180068525
  60     -0.000073216136
  61      0.002297775977
  62     -0.002686416037
  63      0.001952738317
  64     -0.001820662074
  65      0.001583304952
  66      0.000122102976
  67     -0.000367540393
  68      0.000298422498
  69     -0.000719380367
  70      0.003496439842
  71     -0.007738520314
  72     -0.001777146753
  73     -0.002097159946
  74     -0.001201823750
  75      0.003487749556
  76     -0.007758591487
  77      0.001294266089
  78      0.002578890206
  79     -0.000818922356
  80      0.001994882126
  81     -0.004128281018
  82      0.000720017759
  83      0.001300971716
  84      0.000419048075
  85      0.001975959339
  86     -0.004161946273
  87     -0.000921106169
  88     -0.001220747847
  89      0.000209116141
 Ene=  -0.10197249223805E+02
 Spin= Alpha
 Occup=    0.000000
   1      0.000000000000
   2      0.000000000000
   3      0.000000000000
   4      0.000000000000
   5      0.000000000000
   6      0.000000000000
   7      0.000000000000
   8      0.000000000000
   9      0.000000000000
  10      0.000000000000
  11      0.000000000000
  12      0.000000000000
  13      0.000000000000
  14      0.000000000000
  15      0.000000000000
  16      0.000000000000
  17      0.000000000000
  18      0.000000000000
  19      0.000000000000
  20      0.000000000000
  21      0.000000000000
  22      0.000000000000
  23      0.000000000000
  24      0.000000000000
  25      0.000000000000
  26      0.000000000000
  27      0.000000000000
  28      0.000000000000
  29      0.000000000000
  30      0.000000000000
  31      0.000000000000