[Molden Format]
[Atoms] (AU)
O    1    8          -0.4583716126        -0.6487406072         0.0000000000
O    2    8           1.8660697166        -0.8325220814         0.0000000000
O    3    8          -1.4076981040         1.4812626886         0.0000000000
[GTO]
  1 0
 s    5  1.00
     2266.1767785000        -0.0053431810
      340.8701019100        -0.0398900392
       77.3631351670        -0.1785391199
       21.4796449400        -0.4642768496
        6.6589433124        -0.4430974517
 s    1  1.00
        0.8097597567         1.0000000000
 s    1  1.00
        0.2553077223         1.0000000000
 p    3  1.00
       17.7215043170         0.0433945732
        3.8635505440         0.2309412077
        1.0480920883         0.5137531106
 p    1  1.00
        0.2764154441         1.0000000000
 d    1  1.00
        1.2000000000         1.0000000000

  2 0
 s    5  1.00
     2266.1767785000        -0.0053431810
      340.8701019100        -0.0398900392
       77.3631351670        -0.1785391199
       21.4796449400        -0.4642768496
        6.6589433124        -0.4430974517
 s    1  1.00
        0.8097597567         1.0000000000
 s    1  1.00
        0.2553077223         1.0000000000
 p    3  1.00
       17.7215043170         0.0433945732
        3.8635505440         0.2309412077
        1.0480920883         0.5137531106
 p    1  1.00
        0.2764154441         1.0000000000
 d    1  1.00
        1.2000000000         1.0000000000

  3 0
 s    5  1.00
     2266.1767785000        -0.0053431810
      340.8701019100        -0.0398900392
       77.3631351670        -0.1785391199
       21.4796449400        -0.4642768496
        6.6589433124        -0.4430974517
 s    1  1.00
        0.8097597567         1.0000000000
 s    1  1.00
        0.2553077223         1.0000000000
 p    3  1.00
       17.7215043170         0.0433945732
        3.8635505440         0.2309412077
        1.0480920883         0.5137531106
 p    1  1.00
        0.2764154441         1.0000000000
 d    1  1.00
        1.2000000000         1.0000000000

[5D7F]
[9G]

[MO]
 Sym= A'
 Ene=        -1.9510144596e+01
 Spin= Alpha
 Occup=         1.0000000000e+00
  1         9.8910059419e-01
  2        -3.9013069455e-02
  3         2.5270992328e-02
  4        -1.4977532580e-03
  5        -2.1179903664e-03
  6         0.0000000000e+00
  7         3.5712713116e-03
  8         5.0528674954e-03
  9         0.0000000000e+00
 10         3.0762095644e-05
 11         0.0000000000e+00
 12         0.0000000000e+00
 13        -1.1110498382e-04
 14         3.1219530539e-04
 15        -6.1397259879e-05
 16         1.2817722468e-03
 17        -7.4364678953e-03
 18        -7.4931606473e-04
 19         1.3737382427e-05
 20         0.0000000000e+00
 21         3.3248285076e-03
 22        -1.1350193007e-03
 23         0.0000000000e+00
 24        -8.0338836052e-04
 25         0.0000000000e+00
 26         0.0000000000e+00
 27         1.2546400315e-03
 28         1.2714996965e-04
 29        -6.1765303870e-05
 30         1.2811466699e-03
 31        -7.4350227887e-03
 32         2.6271379801e-04
 33        -7.0083021562e-04
 34         0.0000000000e+00
 35        -2.1796514927e-03
 36         2.7552647107e-03
 37         0.0000000000e+00
 38        -8.0298263524e-04
 39         0.0000000000e+00
 40         0.0000000000e+00
 41        -1.0545622984e-03
 42        -6.9027598365e-04
 Sym= A'
 Ene=        -1.9319630036e+01
 Spin= Alpha
 Occup=         1.0000000000e+00
  1        -1.4067265620e-04
  2        -1.9693374374e-04
  3         8.4857636585e-04
  4        -9.2104120123e-04
  5         5.4395587271e-04
  6         0.0000000000e+00
  7         3.3745869944e-03
  8        -2.3070936723e-03
  9         0.0000000000e+00
 10         2.0670200405e-04
 11         0.0000000000e+00
 12         0.0000000000e+00
 13        -1.6747716531e-03
 14        -4.3061889373e-04
 15        -7.9976338864e-01
 16         3.0318335434e-02
 17        -1.5173599542e-02
 18        -2.0137981540e-03
 19         4.0842470332e-04
 20         0.0000000000e+00
 21         4.1140676480e-03
 22        -6.8124652622e-04
 23         0.0000000000e+00
 24         1.6547668750e-05
 25         0.0000000000e+00
 26         0.0000000000e+00
 27         1.7812470196e-04
 28        -5.0164814504e-05
 29         5.8222620580e-01
 30        -2.2452463270e-02
 31         1.1969332032e-02
 32        -8.9955621785e-04
 33         1.3269834611e-03
 34         0.0000000000e+00
 35         1.9143959219e-03
 36        -3.0894122810e-03
 37         0.0000000000e+00
 38        -8.9450220962e-05
 39         0.0000000000e+00
 40         0.0000000000e+00
 41         7.1342563352e-05
 42         9.2134964040e-05
 Sym= A'
 Ene=        -1.9319497876e+01
 Spin= Alpha
 Occup=         1.0000000000e+00
  1         8.9390411257e-04
  2         1.2484032148e-03
  3        -5.3847147990e-03
  4         1.8247497298e-04
  5         5.4781730312e-04
  6         0.0000000000e+00
  7         2.9269977417e-04
  8        -7.0126443850e-04
  9         0.0000000000e+00
 10        -1.3114954077e-03
 11         0.0000000000e+00
 12         0.0000000000e+00
 13         6.9322911481e-05
 14        -1.0064876808e-03
 15         5.8239239186e-01
 16        -2.0836683407e-02
 17         8.0409282440e-03
 18         1.1875525270e-03
 19         5.3324207058e-05
 20         0.0000000000e+00
 21        -1.1835348746e-03
 22        -4.0643333229e-04
 23         0.0000000000e+00
 24         2.3938663150e-04
 25         0.0000000000e+00
 26         0.0000000000e+00
 27        -1.8143796743e-04
 28         6.8037578855e-05
 29         7.9988461977e-01
 30        -2.9141132925e-02
 31         1.2312848866e-02
 32        -6.5386232913e-04
 33         1.6226891445e-03
 34         0.0000000000e+00
 35         6.3046508676e-04
 36        -2.3123000087e-03
 37         0.0000000000e+00
 38         2.2238788720e-04
 39         0.0000000000e+00
 40         0.0000000000e+00
 41         1.2584169676e-04
 42         2.0503384079e-04
 Sym= A'
 Ene=        -1.4226042670e+00
 Spin= Alpha
 Occup=         1.0000000000e+00
  1         2.3803172421e-01
  2         4.9323370660e-01
  3         2.3017895462e-01
  4         7.9832418004e-02
  5         1.1278092356e-01
  6         0.0000000000e+00
  7         3.1870586062e-02
  8         4.5057249013e-02
  9         0.0000000000e+00
 10        -1.4625302796e-02
 11         0.0000000000e+00
 12         0.0000000000e+00
 13         2.7539431292e-03
 14        -7.7463242073e-03
 15         1.1983201829e-01
 16         2.4174997187e-01
 17         7.5702130926e-02
 18        -1.2733359297e-01
 19         1.9711499724e-02
 20         0.0000000000e+00
 21        -2.1558714585e-02
 22        -4.8819547857e-04
 23         0.0000000000e+00
 24        -7.7723350481e-03
 25         0.0000000000e+00
 26         0.0000000000e+00
 27         1.5320718591e-02
 28        -4.5219049038e-03
 29         1.1973106503e-01
 30         2.4154381330e-01
 31         7.5636836832e-02
 32         6.1045678674e-02
 33        -1.1334886554e-01
 34         0.0000000000e+00
 35         6.7289738712e-03
 36        -2.0467896519e-02
 37         0.0000000000e+00
 38        -7.7675415995e-03
 39         0.0000000000e+00
 40         0.0000000000e+00
 41        -9.0525702923e-03
 42        -1.3148278221e-02
 Sym= A'
 Ene=        -1.1399722886e+00
 Spin= Alpha
 Occup=         1.0000000000e+00
  1        -6.0309652733e-05
  2        -1.2377042817e-04
  3        -1.0379431492e-04
  4         2.8014857031e-01
  5        -1.9801376541e-01
  6         0.0000000000e+00
  7         8.2451904631e-02
  8        -5.8298636048e-02
  9         0.0000000000e+00
 10         2.8449574340e-06
 11         0.0000000000e+00
 12         0.0000000000e+00
 13         2.8732341844e-02
 14         1.0174896922e-02
 15         1.8436951741e-01
 16         3.7929707067e-01
 17         2.0045191616e-01
 18        -1.3274255795e-01
 19        -6.5059624340e-03
 20         0.0000000000e+00
 21        -4.2731673321e-02
 22         2.9502249221e-03
 23         0.0000000000e+00
 24        -6.6168910852e-03
 25         0.0000000000e+00
 26         0.0000000000e+00
 27         1.6331521300e-02
 28         1.9882799815e-04
 29        -1.8443930080e-01
 30        -3.7943440076e-01
 31        -2.0051492973e-01
 32        -3.8218417664e-02
 33         1.2733722812e-01
 34         0.0000000000e+00
 35        -1.7051898088e-02
 36         3.9304066432e-02
 37         0.0000000000e+00
 38         6.6215961109e-03
 39         0.0000000000e+00
 40         0.0000000000e+00
 41         1.2820330800e-02
 42         1.0132843886e-02
 Sym= A'
 Ene=        -7.7906955307e-01
 Spin= Alpha
 Occup=         1.0000000000e+00
  1         1.8775589203e-01
  2         4.1849055721e-01
  3         3.4108536155e-01
  4        -1.1617866437e-01
  5        -1.6436187685e-01
  6         0.0000000000e+00
  7        -5.1719037387e-02
  8        -7.3181001761e-02
  9         0.0000000000e+00
 10         7.3812129189e-03
 11         0.0000000000e+00
 12         0.0000000000e+00
 13         3.0764640713e-03
 14        -8.6972236671e-03
 15        -1.6700285330e-01
 16        -3.4693417483e-01
 17        -3.0390411393e-01
 18        -1.0934214634e-01
 19        -4.8048854474e-02
 20         0.0000000000e+00
 21        -3.5248538403e-02
 22        -2.6816943771e-02
 23         0.0000000000e+00
 24        -3.6889757967e-03
 25         0.0000000000e+00
 26         0.0000000000e+00
 27         5.2310924835e-03
 28         6.5848891844e-03
 29        -1.6699359371e-01
 30        -3.4691129261e-01
 31        -3.0386756227e-01
 32        -8.7847495445e-03
 33        -1.1906535349e-01
 34         0.0000000000e+00
 35        -1.3507684721e-02
 36        -4.2166422647e-02
 37         0.0000000000e+00
 38        -3.6871878982e-03
 39         0.0000000000e+00
 40         0.0000000000e+00
 41        -8.2059315407e-03
 42         1.8255047208e-03
 Sym= A"
 Ene=        -6.3893279951e-01
 Spin= Alpha
 Occup=         1.0000000000e+00
  1         0.0000000000e+00
  2         0.0000000000e+00
  3         0.0000000000e+00
  4         0.0000000000e+00
  5         0.0000000000e+00
  6         5.4749784636e-01
  7         0.0000000000e+00
  8         0.0000000000e+00
  9         3.1571549318e-01
 10         0.0000000000e+00
 11         1.6664140862e-02
 12         2.3557578598e-02
 13         0.0000000000e+00
 14         0.0000000000e+00
 15         0.0000000000e+00
 16         0.0000000000e+00
 17         0.0000000000e+00
 18         0.0000000000e+00
 19         0.0000000000e+00
 20         2.4558522837e-01
 21         0.0000000000e+00
 22         0.0000000000e+00
 23         1.3137881281e-01
 24         0.0000000000e+00
 25        -2.5429444076e-02
 26         2.9840576726e-03
 27         0.0000000000e+00
 28         0.0000000000e+00
 29         0.0000000000e+00
 30         0.0000000000e+00
 31         0.0000000000e+00
 32         0.0000000000e+00
 33         0.0000000000e+00
 34         2.4543073922e-01
 35         0.0000000000e+00
 36         0.0000000000e+00
 37         1.3129848434e-01
 38         0.0000000000e+00
 39         1.1295935672e-02
 40        -2.2960787742e-02
 41         0.0000000000e+00
 42         0.0000000000e+00
 Sym= A'
 Ene=        -6.2222940260e-01
 Spin= Alpha
 Occup=         1.0000000000e+00
  1         1.9541993793e-02
  2         3.3118840099e-02
  3         1.3018366985e-02
  4        -2.8312747050e-01
  5        -4.0063414112e-01
  6         0.0000000000e+00
  7        -1.6773743748e-01
  8        -2.3737007118e-01
  9         0.0000000000e+00
 10         1.2064870916e-02
 11         0.0000000000e+00
 12         0.0000000000e+00
 13         9.2569098090e-03
 14        -2.6160786422e-02
 15         7.5859871740e-02
 16         1.4986612140e-01
 17         2.2179251637e-01
 18         1.7013344071e-01
 19        -2.1825617798e-01
 20         0.0000000000e+00
 21         5.2707263182e-02
 22        -1.1181011888e-01
 23         0.0000000000e+00
 24         7.0132308993e-03
 25         0.0000000000e+00
 26         0.0000000000e+00
 27        -5.6200728249e-03
 28         2.0044076611e-02
 29         7.5857148020e-02
 30         1.4986586392e-01
 31         2.2175883031e-01
 32        -2.6238282181e-01
 33         8.7501312927e-02
 34         0.0000000000e+00
 35        -1.2291982279e-01
 36         1.2358949667e-02
 37         0.0000000000e+00
 38         7.0113395284e-03
 39         0.0000000000e+00
 40         0.0000000000e+00
 41        -8.2414746219e-03
 42         1.9103986878e-02
 Sym= A'
 Ene=        -6.0850207709e-01
 Spin= Alpha
 Occup=         1.0000000000e+00
  1        -1.9042659722e-05
  2        -3.2060366208e-05
  3        -7.1517852982e-05
  4         3.2137270765e-01
  5        -2.2711417964e-01
  6         0.0000000000e+00
  7         1.5899803496e-01
  8        -1.1237770000e-01
  9         0.0000000000e+00
 10        -1.3140957892e-06
 11         0.0000000000e+00
 12         0.0000000000e+00
 13         1.4500196137e-02
 14         5.1290007227e-03
 15        -1.1931198056e-01
 16        -2.4122169932e-01
 17        -3.0129109655e-01
 18        -3.1921831316e-01
 19        -4.8415979031e-02
 20         0.0000000000e+00
 21        -1.3835440060e-01
 22        -2.1615961411e-02
 23         0.0000000000e+00
 24        -1.0971048618e-02
 25         0.0000000000e+00
 26         0.0000000000e+00
 27         1.6257130355e-02
 28         4.2531678223e-03
 29         1.1933042359e-01
 30         2.4126710022e-01
 31         3.0130226853e-01
 32        -6.0964355178e-02
 33         3.1698275489e-01
 34         0.0000000000e+00
 35        -2.5832211843e-02
 36         1.3759432482e-01
 37         0.0000000000e+00
 38         1.0969875127e-02
 39         0.0000000000e+00
 40         0.0000000000e+00
 41         1.5304630257e-02
 42         6.9288425075e-03
 Sym= A"
 Ene=        -3.7720343135e-01
 Spin= Alpha
 Occup=         1.0000000000e+00
  1         0.0000000000e+00
  2         0.0000000000e+00
  3         0.0000000000e+00
  4         0.0000000000e+00
  5         0.0000000000e+00
  6        -7.4259902149e-05
  7         0.0000000000e+00
  8         0.0000000000e+00
  9        -7.1876235304e-05
 10         0.0000000000e+00
 11         3.1783061007e-02
 12        -2.2464121012e-02
 13         0.0000000000e+00
 14         0.0000000000e+00
 15         0.0000000000e+00
 16         0.0000000000e+00
 17         0.0000000000e+00
 18         0.0000000000e+00
 19         0.0000000000e+00
 20         4.7724484063e-01
 21         0.0000000000e+00
 22         0.0000000000e+00
 23         3.4300383806e-01
 24         0.0000000000e+00
 25        -1.9779487261e-02
 26         1.0687057598e-03
 27         0.0000000000e+00
 28         0.0000000000e+00
 29         0.0000000000e+00
 30         0.0000000000e+00
 31         0.0000000000e+00
 32         0.0000000000e+00
 33         0.0000000000e+00
 34        -4.7733400502e-01
 35         0.0000000000e+00
 36         0.0000000000e+00
 37        -3.4306531621e-01
 38         0.0000000000e+00
 39        -7.6129421937e-03
 40         1.8291715491e-02
 41         0.0000000000e+00
 42         0.0000000000e+00
 Sym= A'
 Ene=        -3.6247218990e-01
 Spin= Alpha
 Occup=         1.0000000000e+00
  1         2.7459143907e-05
  2         5.7449832641e-05
  3         7.9451317205e-05
  4         3.3347811168e-02
  5        -2.3754951478e-02
  6         0.0000000000e+00
  7        -4.1135435414e-02
  8         2.8927858788e-02
  9         0.0000000000e+00
 10         7.7235282875e-06
 11         0.0000000000e+00
 12         0.0000000000e+00
 13         2.7869920538e-02
 14         9.8820911657e-03
 15         5.2172111893e-03
 16         2.0664349841e-02
 17         2.1676089049e-02
 18        -7.8919794019e-02
 19         4.9076184095e-01
 20         0.0000000000e+00
 21        -6.4980284669e-02
 22         3.3810381644e-01
 23         0.0000000000e+00
 24        -2.4251805278e-03
 25         0.0000000000e+00
 26         0.0000000000e+00
 27         3.3795777204e-03
 28        -1.7088478740e-02
 29        -5.2146491676e-03
 30        -2.0669286103e-02
 31        -2.1615270872e-02
 32        -4.8885915612e-01
 33        -8.9175493346e-02
 34         0.0000000000e+00
 35        -3.4031210081e-01
 36        -5.1452971453e-02
 37         0.0000000000e+00
 38         2.4301850598e-03
 39         0.0000000000e+00
 40         0.0000000000e+00
 41        -8.1196503642e-03
 42         1.5410028817e-02
 Sym= A'
 Ene=        -3.4707437920e-01
 Spin= Alpha
 Occup=         1.0000000000e+00
  1         6.0467799456e-02
  2         1.1509312988e-01
  3         2.5041424808e-01
  4        -1.7783065040e-01
  5        -2.5163924754e-01
  6         0.0000000000e+00
  7        -1.0737758848e-01
  8        -1.5201639518e-01
  9         0.0000000000e+00
 10         1.4344050305e-02
 11         0.0000000000e+00
 12         0.0000000000e+00
 13        -1.0002615083e-02
 14         2.8228228029e-02
 15        -1.1363546902e-02
 16        -4.4204492865e-02
 17         2.0836955091e-02
 18         2.1524585492e-01
 19         3.9160430665e-01
 20         0.0000000000e+00
 21         1.3131575988e-01
 22         3.0039136166e-01
 23         0.0000000000e+00
 24         3.1366765670e-03
 25         0.0000000000e+00
 26         0.0000000000e+00
 27        -9.7687602853e-03
 28        -7.1078776945e-03
 29        -1.1350423364e-02
 30        -4.4166539378e-02
 31         2.0883581138e-02
 32         2.9755610792e-01
 33         3.3376561814e-01
 34         0.0000000000e+00
 35         2.3950610590e-01
 36         2.2414511229e-01
 37         0.0000000000e+00
 38         3.1377552308e-03
 39         0.0000000000e+00
 40         0.0000000000e+00
 41         1.2072800691e-02
 42         6.1805072385e-04
 Sym= A"
 Ene=        -1.7091432429e-01
 Spin= Alpha
 Occup=         0.0000000000e+00
  1         0.0000000000e+00
  2         0.0000000000e+00
  3         0.0000000000e+00
  4         0.0000000000e+00
  5         0.0000000000e+00
  6         4.8506763815e-01
  7         0.0000000000e+00
  8         0.0000000000e+00
  9         3.7143108274e-01
 10         0.0000000000e+00
 11        -2.7772646336e-03
 12        -3.9271073290e-03
 13         0.0000000000e+00
 14         0.0000000000e+00
 15         0.0000000000e+00
 16         0.0000000000e+00
 17         0.0000000000e+00
 18         0.0000000000e+00
 19         0.0000000000e+00
 20        -4.1286986361e-01
 21         0.0000000000e+00
 22         0.0000000000e+00
 23        -3.4943922231e-01
 24         0.0000000000e+00
 25        -3.5162510854e-03
 26        -1.4764140726e-03
 27         0.0000000000e+00
 28         0.0000000000e+00
 29         0.0000000000e+00
 30         0.0000000000e+00
 31         0.0000000000e+00
 32         0.0000000000e+00
 33         0.0000000000e+00
 34        -4.1283342784e-01
 35         0.0000000000e+00
 36         0.0000000000e+00
 37        -3.4939473432e-01
 38         0.0000000000e+00
 39        -2.1832118638e-04
 40        -3.8065296886e-03
 41         0.0000000000e+00
 42         0.0000000000e+00
 Sym= A'
 Ene=         1.3610064356e-01
 Spin= Alpha
 Occup=         0.0000000000e+00
  1         1.6952033247e-01
  2         4.0090144524e-01
  3         1.2676854655e+00
  4         2.4336774769e-01
  5         3.4539719915e-01
  6         0.0000000000e+00
  7         3.8563288058e-01
  8         5.4701280797e-01
  9         0.0000000000e+00
 10         2.4467658041e-02
 11         0.0000000000e+00
 12         0.0000000000e+00
 13        -9.4732069461e-03
 14         2.6835067047e-02
 15        -7.6881264109e-02
 16        -1.6968759291e-01
 17        -5.9359711911e-01
 18         4.0849658277e-01
 19        -1.2324078891e-01
 20         0.0000000000e+00
 21         6.3930005241e-01
 22        -1.9309710491e-01
 23         0.0000000000e+00
 24        -2.5874777726e-03
 25         0.0000000000e+00
 26         0.0000000000e+00
 27         8.8583375514e-03
 28        -1.2813897585e-02
 29        -7.7023147001e-02
 30        -1.7002533872e-01
 31        -5.9441123314e-01
 32        -2.5262375680e-01
 33         3.4465959639e-01
 34         0.0000000000e+00
 35        -3.9558512561e-01
 36         5.3920192553e-01
 37         0.0000000000e+00
 38        -2.6033674756e-03
 39         0.0000000000e+00
 40         0.0000000000e+00
 41         1.1493921276e-03
 42        -1.5523551373e-02
 Sym= A'
 Ene=         2.2625575040e-01
 Spin= Alpha
 Occup=         0.0000000000e+00
  1         1.7743193405e-04
  2         4.2018063569e-04
  3         1.7033150363e-03
  4         5.2425098795e-01
  5        -3.7003059621e-01
  6         0.0000000000e+00
  7         8.7920882530e-01
  8        -6.2038698512e-01
  9         0.0000000000e+00
 10         2.3764710319e-05
 11         0.0000000000e+00
 12         0.0000000000e+00
 13        -3.3177573560e-02
 14        -1.1721543510e-02
 15        -8.9623579807e-02
 16        -2.2016690086e-01
 17        -6.6570805664e-01
 18         3.7575643996e-01
 19         6.8373828088e-02
 20         0.0000000000e+00
 21         6.8446504574e-01
 22         7.6032759646e-02
 23         0.0000000000e+00
 24        -1.0563614325e-02
 25         0.0000000000e+00
 26         0.0000000000e+00
 27         1.1951237214e-02
 28         1.4031427986e-02
 29         8.9459923367e-02
 30         2.1981218874e-01
 31         6.6406190480e-01
 32         6.0558629027e-02
 33        -3.7638884042e-01
 34         0.0000000000e+00
 35         1.5598163209e-01
 36        -6.6927028868e-01
 37         0.0000000000e+00
 38         1.0555732065e-02
 39         0.0000000000e+00
 40         0.0000000000e+00
 41         1.8114461210e-02
 42        -3.4149216525e-03
 Sym= A'
 Ene=         6.8424576233e-01
 Spin= Alpha
 Occup=         0.0000000000e+00
  1         1.5470108927e-01
  2         7.9436448612e-01
  3         1.7414757258e-01
  4        -1.7059434725e-01
  5        -2.4148993497e-01
  6         0.0000000000e+00
  7         3.7690580722e-01
  8         5.3361263357e-01
  9         0.0000000000e+00
 10        -6.7113920453e-02
 11         0.0000000000e+00
 12         0.0000000000e+00
 13         2.1411397476e-02
 14        -6.0409354413e-02
 15         1.5900189903e-01
 16         8.5055479667e-01
 17        -1.1117633299e+00
 18        -6.8297583752e-02
 19         1.7086385072e-01
 20         0.0000000000e+00
 21         3.8038094845e-01
 22        -2.3803138512e-01
 23         0.0000000000e+00
 24        -8.8715240218e-03
 25         0.0000000000e+00
 26         0.0000000000e+00
 27         3.3150798950e-02
 28         2.0758619498e-02
 29         1.5895964044e-01
 30         8.5030402316e-01
 31        -1.1115366766e+00
 32         1.8394508460e-01
 33        -7.3293563873e-03
 34         0.0000000000e+00
 35        -3.5132407899e-01
 36         2.7904779218e-01
 37         0.0000000000e+00
 38        -8.8658511268e-03
 39         0.0000000000e+00
 40         0.0000000000e+00
 41        -3.8819505087e-02
 42        -4.7208838649e-03
 Sym= A"
 Ene=         8.0724024729e-01
 Spin= Alpha
 Occup=         0.0000000000e+00
  1         0.0000000000e+00
  2         0.0000000000e+00
  3         0.0000000000e+00
  4         0.0000000000e+00
  5         0.0000000000e+00
  6         6.7442674900e-01
  7         0.0000000000e+00
  8         0.0000000000e+00
  9        -6.7345462727e-01
 10         0.0000000000e+00
 11         1.7559580109e-02
 12         2.4807122785e-02
 13         0.0000000000e+00
 14         0.0000000000e+00
 15         0.0000000000e+00
 16         0.0000000000e+00
 17         0.0000000000e+00
 18         0.0000000000e+00
 19         0.0000000000e+00
 20         4.8368201930e-01
 21         0.0000000000e+00
 22         0.0000000000e+00
 23        -3.5351765419e-01
 24         0.0000000000e+00
 25        -1.9369435382e-02
 26        -1.4767893209e-03
 27         0.0000000000e+00
 28         0.0000000000e+00
 29         0.0000000000e+00
 30         0.0000000000e+00
 31         0.0000000000e+00
 32         0.0000000000e+00
 33         0.0000000000e+00
 34         4.8359961078e-01
 35         0.0000000000e+00
 36         0.0000000000e+00
 37        -3.5339974366e-01
 38         0.0000000000e+00
 39         5.0602627873e-03
 40        -1.8720744640e-02
 41         0.0000000000e+00
 42         0.0000000000e+00
 Sym= A'
 Ene=         8.2222651154e-01
 Spin= Alpha
 Occup=         0.0000000000e+00
  1         9.1571151311e-02
  2         4.9470575709e-01
  3        -6.3479397108e-01
  4        -3.1568432405e-01
  5        -4.4899774122e-01
  6         0.0000000000e+00
  7         2.6417567629e-01
  8         3.7859035270e-01
  9         0.0000000000e+00
 10         8.5797662360e-03
 11         0.0000000000e+00
 12         0.0000000000e+00
 13         1.2034069058e-02
 14        -3.3877429677e-02
 15        -5.3915214035e-02
 16        -2.9627704455e-01
 17         3.2285642655e-01
 18        -1.2965658266e-01
 19        -4.7560843009e-01
 20         0.0000000000e+00
 21         6.0049184776e-02
 22         3.9824184433e-01
 23         0.0000000000e+00
 24         4.4147474525e-04
 25         0.0000000000e+00
 26         0.0000000000e+00
 27        -1.1081604742e-02
 28         1.2908027105e-02
 29        -5.4825247845e-02
 30        -3.0096135553e-01
 31         3.2468595114e-01
 32        -4.0283847647e-01
 33        -2.8209979990e-01
 34         0.0000000000e+00
 35         3.5297180602e-01
 36         1.9201857751e-01
 37         0.0000000000e+00
 38         5.8103013250e-04
 39         0.0000000000e+00
 40         0.0000000000e+00
 41         7.1873311581e-04
 42         1.7188204568e-02
 Sym= A'
 Ene=         8.2280859479e-01
 Spin= Alpha
 Occup=         0.0000000000e+00
  1         2.9065144668e-04
  2         1.5539202398e-03
  3        -1.7465489768e-03
  4        -3.6757590631e-01
  5         2.5756924847e-01
  6         0.0000000000e+00
  7         7.5335454372e-01
  8        -5.3037310901e-01
  9         0.0000000000e+00
 10         1.6297218154e-05
 11         0.0000000000e+00
 12         0.0000000000e+00
 13        -1.3409570894e-02
 14        -4.8695930793e-03
 15        -1.4633905886e-01
 16        -7.5824418351e-01
 17         2.9223820956e-01
 18        -2.9290033622e-01
 19         2.6753366799e-01
 20         0.0000000000e+00
 21         5.0417567881e-01
 22        -2.1057045310e-01
 23         0.0000000000e+00
 24         2.3833782092e-02
 25         0.0000000000e+00
 26         0.0000000000e+00
 27        -4.9191040097e-02
 28         3.5291301624e-03
 29         1.4606263798e-01
 30         7.5665744755e-01
 31        -2.9075780003e-01
 32        -3.5237419574e-01
 33         1.8508480815e-01
 34         0.0000000000e+00
 35         3.6881463341e-01
 36        -4.0379750282e-01
 37         0.0000000000e+00
 38        -2.3820426829e-02
 39         0.0000000000e+00
 40         0.0000000000e+00
 41        -3.5990977635e-02
 42        -3.3590921667e-02
 Sym= A'
 Ene=         8.6296890738e-01
 Spin= Alpha
 Occup=         0.0000000000e+00
  1         3.0847034277e-02
  2         2.3847939937e-01
  3        -1.7838247421e+00
  4         1.1204512923e-01
  5         1.5866361001e-01
  6         0.0000000000e+00
  7        -5.2608914539e-01
  8        -7.4460573052e-01
  9         0.0000000000e+00
 10         3.8086608803e-02
 11         0.0000000000e+00
 12         0.0000000000e+00
 13        -1.4805211127e-02
 14         4.1677609343e-02
 15         8.9657846493e-02
 16         3.8576287643e-01
 17         3.5793602713e-01
 18         4.8172447679e-01
 19        -3.0556527042e-01
 20         0.0000000000e+00
 21        -1.0612613124e+00
 22         4.7892209508e-01
 23         0.0000000000e+00
 24        -1.6000434859e-02
 25         0.0000000000e+00
 26         0.0000000000e+00
 27         3.5137659337e-03
 28        -1.1304102893e-02
 29         8.9648531163e-02
 30         3.8573390558e-01
 31         3.5780819979e-01
 32        -4.4883170143e-01
 33         3.5182794682e-01
 34         0.0000000000e+00
 35         8.0554651069e-01
 36        -8.4015632752e-01
 37         0.0000000000e+00
 38        -1.6005102268e-02
 39         0.0000000000e+00
 40         0.0000000000e+00
 41         4.3826072270e-03
 42        -1.1016178335e-02
 Sym= A'
 Ene=         9.1584435882e-01
 Spin= Alpha
 Occup=         0.0000000000e+00
  1         9.2721082459e-06
  2         2.0378177980e-04
  3        -5.9579935880e-04
  4         2.3623393223e-01
  5        -1.6656256642e-01
  6         0.0000000000e+00
  7        -1.4529528024e-01
  8         1.0164492835e-01
  9         0.0000000000e+00
 10        -2.9042414654e-05
 11         0.0000000000e+00
 12         0.0000000000e+00
 13         9.9411623862e-02
 14         3.5185110222e-02
 15        -3.3307627611e-02
 16        -8.9906860378e-02
 17         3.9663640356e-02
 18        -4.7467032537e-01
 19        -3.5095161889e-01
 20         0.0000000000e+00
 21         7.2095176783e-01
 22         3.3545496824e-01
 23         0.0000000000e+00
 24        -2.2985359797e-02
 25         0.0000000000e+00
 26         0.0000000000e+00
 27         4.7244386946e-02
 28        -1.1028051234e-02
 29         3.3348379256e-02
 30         9.0153500265e-02
 31        -3.9222664360e-02
 32         1.7202203863e-01
 33         5.6441636249e-01
 34         0.0000000000e+00
 35        -7.4729671491e-02
 36        -7.9148283856e-01
 37         0.0000000000e+00
 38         2.2940284856e-02
 39         0.0000000000e+00
 40         0.0000000000e+00
 41         2.9727579492e-02
 42         3.8293856818e-02
 Sym= A"
 Ene=         9.4614151138e-01
 Spin= Alpha
 Occup=         0.0000000000e+00
  1         0.0000000000e+00
  2         0.0000000000e+00
  3         0.0000000000e+00
  4         0.0000000000e+00
  5         0.0000000000e+00
  6        -2.4168681052e-04
  7         0.0000000000e+00
  8         0.0000000000e+00
  9         4.5869345370e-04
 10         0.0000000000e+00
 11         6.3604990245e-03
 12        -4.4911733233e-03
 13         0.0000000000e+00
 14         0.0000000000e+00
 15         0.0000000000e+00