[Molden Format]
[Title]
generated by TRESC, real part1 of MOs of job CO3
 
[Atoms] AU
 C   1   6    0.3364484192    5.8882927452    0.3891081484
 O   2   8    2.6974300312    5.9862747024    0.4085979628
 O   3   8   -0.7714112401    7.4618585764    1.8371371576
 O   4   8   -0.6184572465    4.2284969646   -1.0743142370
[GTO]
  1 0
 s  5 1.0
     1238.4016938000        0.0059599745
      186.2900499200        0.0422621111
       42.2511763500        0.1866575214
       11.6765579300        0.4675815865
        3.5930506500        0.4422897287
 s  1 1.0
        0.4024514700        1.0000000000
 s  1 1.0
        0.1309018300        1.0000000000
 p  3 1.0
        9.4680970600        0.0570294585
        2.0103545100        0.3130471495
        0.5477100500        0.7605135301
 p  1 1.0
        0.1526861400        1.0000000000
 d  1 1.0
        0.8000000000        1.0000000000
 
  2 0
 s  5 1.0
     2266.1767785000        0.0060711540
      340.8701019100        0.0417308970
       77.3631351700        0.1850777598
       21.4796449400        0.4668774046
        6.6589433100        0.4435718061
 s  1 1.0
        0.8097597600        1.0000000000
 s  1 1.0
        0.2553077200        1.0000000000
 p  3 1.0
       17.7215043200        0.0628680198
        3.8635505400        0.3334973703
        1.0480920900        0.7412421661
 p  1 1.0
        0.2764154400        1.0000000000
 d  1 1.0
        1.2000000000        1.0000000000
 
  3 0
 s  5 1.0
     2266.1767785000        0.0060711540
      340.8701019100        0.0417308970
       77.3631351700        0.1850777598
       21.4796449400        0.4668774046
        6.6589433100        0.4435718061
 s  1 1.0
        0.8097597600        1.0000000000
 s  1 1.0
        0.2553077200        1.0000000000
 p  3 1.0
       17.7215043200        0.0628680198
        3.8635505400        0.3334973703
        1.0480920900        0.7412421661
 p  1 1.0
        0.2764154400        1.0000000000
 d  1 1.0
        1.2000000000        1.0000000000
 
  4 0
 s  5 1.0
     2266.1767785000        0.0060711540
      340.8701019100        0.0417308970
       77.3631351700        0.1850777598
       21.4796449400        0.4668774046
        6.6589433100        0.4435718061
 s  1 1.0
        0.8097597600        1.0000000000
 s  1 1.0
        0.2553077200        1.0000000000
 p  3 1.0
       17.7215043200        0.0628680198
        3.8635505400        0.3334973703
        1.0480920900        0.7412421661
 p  1 1.0
        0.2764154400        1.0000000000
 d  1 1.0
        1.2000000000        1.0000000000
 
[5D]
[7F]
[9G]
[MO]
 Ene=  -0.19314574486928E+02
 Spin= Alpha
 Occup=    1.000000
   1      0.000251230421
   2      0.000898891635
   3      0.009487362418
   4     -0.000201859333
   5     -0.000084297066
   6     -0.000227195731
   7     -0.012590791693
   8     -0.005764852878
   9     -0.014197674076
  10     -0.000321912768
  11     -0.001107232200
  12     -0.001148272933
  13      0.000875483308
  14     -0.001217605008
  15     -0.014975549854
  16     -0.001892974991
  17      0.003150260092
  18     -0.000209759439
  19      0.000489822472
  20     -0.000217822956
  21      0.002575194662
  22     -0.001233755445
  23      0.002826368777
  24      0.000015334578
  25     -0.000312605211
  26      0.000217942684
  27     -0.000053496520
  28     -0.000343806899
  29     -0.110402377547
  30     -0.006608764623
  31      0.009967697115
  32      0.000231874330
  33     -0.000554715284
  34      0.000238995009
  35     -0.000271551145
  36      0.004291634346
  37     -0.000157577218
  38     -0.000258564923
  39     -0.000244966048
  40     -0.000247723730
  41      0.000516246063
  42     -0.000247315700
  43      0.981074975790
  44      0.047543416531
  45     -0.039452893250
  46      0.001905286347
  47      0.001308858061
  48      0.002163491851
  49     -0.005509502008
  50     -0.004175310599
  51     -0.006268948904
  52      0.000073858870
  53      0.000054874762
  54      0.000023395728
  55     -0.000135707274
  56      0.000053342694
 Ene=  -0.19313740940513E+02
 Spin= Alpha
 Occup=    1.000000
   1      0.000315964825
   2      0.001119814153
   3      0.011868504580
   4      0.000153553776
   5     -0.000122612758
   6      0.000166899150
   7      0.009932583498
   8     -0.008611685330
   9      0.010760484579
  10     -0.000377339817
  11      0.000996939913
  12     -0.001330353939
  13      0.000870833184
  14      0.001118327969
  15     -0.022014054384
  16     -0.002531976956
  17      0.004047215855
  18      0.000175830697
  19      0.000603461390
  20      0.000214640709
  21     -0.002067523403
  22     -0.001292732183
  23     -0.002338986260
  24      0.000028457610
  25      0.000224455567
  26      0.000307096758
  27     -0.000128898838
  28      0.000252485559
  29      0.981009483373
  30      0.047254426957
  31     -0.038183787993
  32     -0.001884733457
  33      0.001423199726
  34     -0.002048520629
  35      0.005521813558
  36     -0.003885966585
  37      0.006011328653
  38      0.000013196309
  39     -0.000120801956
  40     -0.000033436896
  41     -0.000008262459
  42     -0.000135843665
  43      0.110308499603
  44      0.004059357594
  45      0.001212460435
  46      0.000189970434
  47     -0.000245747123
  48      0.000202803236
  49     -0.000916517640
  50      0.003419384587
  51     -0.000904365537
  52     -0.000241892957
  53      0.000297671594
  54     -0.000221463863
  55      0.000445659608
  56      0.000353307481
 Ene=  -0.19308830278678E+02
 Spin= Alpha
 Occup=    1.000000
   1      0.000353864166
   2      0.000627824107
   3      0.012814202052
   4     -0.000001998203
   5     -0.000197668962
   6     -0.000008426525
   7      0.000148861015
   8      0.014042909427
   9      0.000618976210
  10      0.001007311336
  11     -0.000049518347
  12      0.000533531352
  13     -0.001851964104
  14     -0.000156114731
  15      0.987087120201
  16      0.047114129597
  17     -0.036224695101
  18     -0.000025456877
  19     -0.003144215368
  20     -0.000129621921
  21      0.000061715221
  22      0.008228742525
  23      0.000334397141
  24     -0.000132541900
  25     -0.000007372783
  26      0.000253958126
  27      0.000175232226
  28      0.000012228989
  29      0.020495408083
  30     -0.000258991858
  31      0.001311116419
  32      0.000349201798
  33      0.000003539489
  34      0.000388024105
  35     -0.001298969590
  36     -0.001896681160
  37     -0.001504576561
  38     -0.000028947371
  39      0.000226929058
  40      0.000256773863
  41     -0.000019310966
  42      0.000260394968
  43      0.017635617346
  44     -0.000395372292
  45      0.001442282136
  46     -0.000352939255
  47      0.000036675647
  48     -0.000391878123
  49      0.001281523141
  50     -0.002017551599
  51      0.001361740098
  52     -0.000033948867
  53     -0.000246502495
  54      0.000232911995
  55      0.000024581591
  56     -0.000264760009
 Ene=  -0.19293177300179E+02
 Spin= Alpha
 Occup=   -0.000000
   1      0.000000000000
   2      0.000000000000
   3      0.000000000000
   4      0.000000000000
   5      0.000000000000
   6      0.000000000000
   7      0.000000000000
   8      0.000000000000
   9      0.000000000000
  10      0.000000000000
  11      0.000000000000
  12      0.000000000000
  13      0.000000000000
  14      0.000000000000
  15      0.000000000000
  16      0.000000000000
  17      0.000000000000
  18      0.000000000000
  19      0.000000000000
  20      0.000000000000
  21      0.000000000000
  22      0.000000000000
  23      0.000000000000
  24      0.000000000000
  25      0.000000000000
  26      0.000000000000
  27      0.000000000000
  28      0.000000000000
  29      0.000000000000
  30      0.000000000000
  31      0.000000000000
  32      0.000000000000
  33      0.000000000000
  34      0.000000000000
  35      0.000000000000
  36      0.000000000000
  37      0.000000000000
  38      0.000000000000
  39      0.000000000000
  40      0.000000000000
  41      0.000000000000
  42      0.000000000000
  43      0.000000000000
  44      0.000000000000
  45      0.000000000000
  46      0.000000000000
  47      0.000000000000
  48      0.000000000000
  49      0.000000000000
  50      0.000000000000
  51      0.000000000000
  52      0.000000000000
  53      0.000000000000
  54      0.000000000000
  55      0.000000000000
  56      0.000000000000
 Ene=  -0.19292467064702E+02
 Spin= Alpha
 Occup=    0.000000
   1      0.000000000000
   2      0.000000000000
   3      0.000000000000
   4      0.000000000000
   5      0.000000000000
   6      0.000000000000
   7      0.000000000000
   8      0.000000000000
   9      0.000000000000
  10      0.000000000000
  11      0.000000000000
  12      0.000000000000
  13      0.000000000000
  14      0.000000000000
  15      0.000000000000
  16      0.000000000000
  17      0.000000000000
  18      0.000000000000
  19      0.000000000000
  20      0.000000000000
  21      0.000000000000
  22      0.000000000000
  23      0.000000000000
  24      0.000000000000
  25      0.000000000000
  26      0.000000000000
  27      0.000000000000
  28      0.000000000000
  29      0.000000000000
  30      0.000000000000
  31      0.000000000000
  32      0.000000000000
  33      0.000000000000
  34      0.000000000000
  35      0.000000000000
  36      0.000000000000
  37      0.000000000000
  38      0.000000000000
  39      0.000000000000
  40      0.000000000000
  41      0.000000000000
  42      0.000000000000
  43      0.000000000000
  44      0.000000000000
  45      0.000000000000
  46      0.000000000000
  47      0.000000000000
  48      0.000000000000
  49      0.000000000000
  50      0.000000000000
  51      0.000000000000
  52      0.000000000000
  53      0.000000000000
  54      0.000000000000
  55      0.000000000000
  56      0.000000000000
 Ene=  -0.19288422883972E+02
 Spin= Alpha
 Occup=    0.000000
   1      0.000000000000
   2      0.000000000000
   3      0.000000000000
   4      0.000000000000
   5      0.000000000000
   6      0.000000000000
   7      0.000000000000
   8      0.000000000000
   9      0.000000000000
  10      0.000000000000
  11      0.000000000000
  12      0.000000000000
  13      0.000000000000
  14      0.000000000000
  15      0.000000000000
  16      0.000000000000
  17      0.000000000000
  18      0.000000000000
  19      0.000000000000
  20      0.000000000000
  21      0.000000000000
  22      0.000000000000
  23      0.000000000000
  24      0.000000000000
  25      0.000000000000
  26      0.000000000000
  27      0.000000000000
  28      0.000000000000
  29      0.000000000000
  30      0.000000000000
  31      0.000000000000
  32      0.000000000000
  33      0.000000000000
  34      0.000000000000
  35      0.000000000000
  36      0.000000000000
  37      0.000000000000
  38      0.000000000000
  39      0.000000000000
  40      0.000000000000
  41      0.000000000000
  42      0.000000000000
  43      0.000000000000
  44      0.000000000000
  45      0.000000000000
  46      0.000000000000
  47      0.000000000000
  48      0.000000000000
  49      0.000000000000
  50      0.000000000000
  51      0.000000000000
  52      0.000000000000
  53      0.000000000000
  54      0.000000000000
  55      0.000000000000
  56      0.000000000000
 Ene=  -0.10443074637585E+02
 Spin= Alpha
 Occup=   -0.000000
   1      0.000000000000
   2      0.000000000000
   3      0.000000000000
   4      0.000000000000
   5      0.000000000000
   6      0.000000000000
   7      0.000000000000
   8      0.000000000000
   9      0.000000000000
  10      0.000000000000
  11      0.000000000000
  12      0.000000000000
  13      0.000000000000
  14      0.000000000000
  15      0.000000000000
  16      0.000000000000
  17      0.000000000000
  18      0.000000000000
  19      0.000000000000
  20      0.000000000000
  21      0.000000000000
  22      0.000000000000
  23      0.000000000000
  24      0.000000000000
  25      0.000000000000
  26      0.000000000000
  27      0.000000000000
  28      0.000000000000
  29      0.000000000000
  30      0.000000000000
  31      0.000000000000
  32      0.000000000000
  33      0.000000000000
  34      0.000000000000
  35      0.000000000000
  36      0.000000000000
  37      0.000000000000
  38      0.000000000000
  39      0.000000000000
  40      0.000000000000
  41      0.000000000000
  42      0.000000000000
  43      0.000000000000
  44      0.000000000000
  45      0.000000000000
  46      0.000000000000
  47      0.000000000000
  48      0.000000000000
  49      0.000000000000
  50      0.000000000000
  51      0.000000000000
  52      0.000000000000
  53      0.000000000000
  54      0.000000000000
  55      0.000000000000
  56      0.000000000000
 Ene=  -0.10438623920565E+02
 Spin= Alpha
 Occup=    1.000000
   1     -0.987135092461
   2     -0.053751873313
   3     -0.001809295654
   4     -0.000007855346
   5     -0.000513753243
   6     -0.000021781513
   7     -0.000009518232
   8     -0.000552620673
   9     -0.000020802687
  10      0.001158534965
  11      0.000143975752
  12     -0.004163935266
  13     -0.001120904214
  14     -0.000064324436
  15      0.000018858482
  16     -0.000438112349
  17      0.010071570140
  18     -0.000010060562
  19     -0.001278293262
  20     -0.000052221387
  21     -0.000065474626
  22     -0.007719895832
  23     -0.000323828763
  24     -0.000800618288
  25      0.000023761996
  26     -0.000018855933
  27      0.001386321229
  28      0.000115323519
  29     -0.000014603524
  30     -0.000771446485
  31      0.010154490391
  32     -0.000754391445
  33      0.000680379722
  34     -0.000816033405
  35     -0.004969908405
  36      0.003603105648
  37     -0.005409062681
  38      0.000068987638
  39     -0.000996554164
  40      0.001359627261
  41     -0.000343084440
  42     -0.001081915741
  43     -0.000015333225
  44     -0.000782054822
  45      0.010154031899
  46      0.000761711600
  47      0.000598197244
  48      0.000867616438
  49      0.005019471672
  50      0.003080863380
  51      0.005684897072
  52      0.000091956832
  53      0.000876006201
  54      0.001457732350
  55     -0.000530104315
  56      0.000994436699
 Ene=  -0.12342592618579E+01
 Spin= Alpha
 Occup=    1.000000
   1      0.183227045388
   2     -0.355860889234
   3     -0.010268007338
   4     -0.000449741066
   5     -0.041144411212
   6     -0.001742763037
   7     -0.000067807860
   8     -0.004044663742
   9     -0.000209038528
  10      0.007075444749
  11      0.000694958891
  12     -0.021529520706
  13     -0.007667959722
  14     -0.000510555927
  15      0.161539011521
  16     -0.321996155701
  17     -0.165670967175
  18      0.000911203157
  19      0.116026413601
  20      0.004769187533
  21      0.000244342831
  22      0.028839221570
  23      0.001203250216
  24      0.005117074068
  25      0.000101472583
  26     -0.005340659656
  27     -0.007708409373
  28     -0.000578031741
  29      0.130022964484
  30     -0.258825695159
  31     -0.140209245759
  32      0.054210882015
  33     -0.048654596574
  34      0.058690313731
  35      0.015373356991
  36     -0.013521747680
  37      0.016651720650
  38     -0.001321701426
  39      0.004734559009
  40     -0.002983887259
  41      0.002623535799
  42      0.005326254719
  43      0.130222215009
  44     -0.259270551851
  45     -0.140720443549
  46     -0.054861657390
  47     -0.042817240369
  48     -0.062438206398
  49     -0.015630409573
  50     -0.011942288577
  51     -0.017781722138
  52     -0.001486438593
  53     -0.004387833137
  54     -0.003363773146
  55      0.003566510768
  56     -0.004783581853
 Ene=  -0.11985858609443E+01
 Spin= Alpha
 Occup=    0.000000
   1      0.000000000000
   2      0.000000000000
   3      0.000000000000
   4      0.000000000000
   5      0.000000000000
   6      0.000000000000
   7      0.000000000000
   8      0.000000000000
   9      0.000000000000
  10      0.000000000000
  11      0.000000000000
  12      0.000000000000
  13      0.000000000000
  14      0.000000000000
  15      0.000000000000
  16      0.000000000000
  17      0.000000000000
  18      0.000000000000
  19      0.000000000000
  20      0.000000000000
  21      0.000000000000
  22      0.000000000000
  23      0.000000000000
  24      0.000000000000
  25      0.000000000000
  26      0.000000000000
  27      0.000000000000
  28      0.000000000000
  29      0.000000000000
  30      0.000000000000
  31      0.000000000000
  32      0.000000000000
  33      0.000000000000
  34      0.000000000000
  35      0.000000000000
  36      0.000000000000
  37      0.000000000000
  38      0.000000000000
  39      0.000000000000
  40      0.000000000000
  41      0.000000000000
  42      0.000000000000
  43      0.000000000000
  44      0.000000000000
  45      0.000000000000
  46      0.000000000000
  47      0.000000000000
  48      0.000000000000
  49      0.000000000000
  50      0.000000000000
  51      0.000000000000
  52      0.000000000000
  53      0.000000000000
  54      0.000000000000
  55      0.000000000000
  56      0.000000000000
 Ene=  -0.11153364339199E+01
 Spin= Alpha
 Occup=    1.000000
   1     -0.000009588916
   2      0.000006864784
   3      0.000016666583
   4     -0.179088907615
   5      0.006255139271
   6     -0.198993356419
   7     -0.009692772645
   8      0.000446877311
   9     -0.010766698605
  10      0.000360220188
  11      0.016024096881
  12      0.000994540625
  13     -0.001922100468
  14      0.017752873336
  15      0.002906582153
  16     -0.005851248298
  17     -0.003457523817
  18     -0.025913027008
  19      0.002949387930
  20     -0.028727118573
  21     -0.008606055032
  22      0.000928347707
  23     -0.009542323560
  24      0.000087468607
  25      0.003103345179
  26      0.000058753807
  27     -0.000365229136
  28      0.003433887620
  29      0.198508572440
  30     -0.402369974578
  31     -0.231663498277
  32      0.058637996966
  33     -0.061551656872
  34      0.063170029785
  35      0.016925992029
  36     -0.018722507432
  37      0.018198619665
  38     -0.001316778243
  39      0.004900619132
  40      0.000337741093
  41      0.001899334581
  42      0.005578981089
  43     -0.202046482726
  44      0.409660147956
  45      0.236188060373
  46      0.060557516480
  47      0.055284997333
  48      0.069204354603
  49      0.017597496479
  50      0.016930545818
  51      0.020143160832
  52      0.001581099328
  53      0.004849943479
  54      0.000075861448
  55     -0.003051555812
  56      0.005218111230
 Ene=  -0.10949278611105E+01
 Spin= Alpha
 Occup=    1.000000
   1     -0.016436795627
   2      0.033134635989
   3      0.005257003050
   4      0.000540557417
   5     -0.256120248816
   6     -0.007783793001
   7      0.000112975066
   8     -0.010983206138
   9     -0.000237813635
  10      0.012656203171
  11     -0.001332836975
  12      0.017769128235
  13     -0.025590390856
  14     -0.002487680908
  15      0.219906278053
  16     -0.445152694150
  17     -0.263870307627
  18      0.001276828294
  19      0.108075591012
  20      0.004895072788
  21      0.000407641240
  22      0.031592848359
  23      0.001465827751
  24      0.002733699105
  25      0.000209648990
  26     -0.007202596495
  27     -0.003197824018
  28     -0.000228895981
  29     -0.135420957161
  30      0.275683506058
  31      0.162586713794
  32     -0.047412706516
  33      0.008357888871
  34     -0.052444723663
  35     -0.014784758359
  36      0.000928468607
  37     -0.016406412497
  38      0.002512774040
  39     -0.001099184380
  40      0.001243519252
  41     -0.004549693958
  42     -0.001468582625
  43     -0.130144817857
  44      0.265006550145
  45      0.156609726375
  46      0.045849557564
  47      0.001899596619
  48      0.051076877231
  49      0.014365089569
  50     -0.001020374943
  51      0.015952456927
  52      0.002543683437
  53      0.000736361089
  54      0.001279857611
  55     -0.004707212978
  56      0.000566067512
 Ene=  -0.10626758090641E+01
 Spin= Alpha
 Occup=    0.000000
   1      0.000000000000
   2      0.000000000000
   3      0.000000000000
   4      0.000000000000
   5      0.000000000000
   6      0.000000000000
   7      0.000000000000
   8      0.000000000000
   9      0.000000000000
  10      0.000000000000
  11      0.000000000000
  12      0.000000000000
  13      0.000000000000
  14      0.000000000000
  15      0.000000000000
  16      0.000000000000
  17      0.000000000000
  18      0.000000000000
  19      0.000000000000
  20      0.000000000000
  21      0.000000000000
  22      0.000000000000
  23      0.000000000000
  24      0.000000000000
  25      0.000000000000
  26      0.000000000000
  27      0.000000000000
  28      0.000000000000
  29      0.000000000000
  30      0.000000000000
  31      0.000000000000
  32      0.000000000000
  33      0.000000000000
  34      0.000000000000
  35      0.000000000000
  36      0.000000000000
  37      0.000000000000
  38      0.000000000000
  39      0.000000000000
  40      0.000000000000
  41      0.000000000000
  42      0.000000000000
  43      0.000000000000
  44      0.000000000000
  45      0.000000000000
  46      0.000000000000
  47      0.000000000000
  48      0.000000000000
  49      0.000000000000
  50      0.000000000000
  51      0.000000000000
  52      0.000000000000
  53      0.000000000000
  54      0.000000000000
  55      0.000000000000
  56      0.000000000000
 Ene=  -0.10438530095454E+01
 Spin= Alpha
 Occup=   -0.000000
   1      0.000000000000
   2      0.000000000000
   3      0.000000000000
   4      0.000000000000
   5      0.000000000000
   6      0.000000000000
   7      0.000000000000
   8      0.000000000000
   9      0.000000000000
  10      0.000000000000
  11      0.000000000000
  12      0.000000000000
  13      0.000000000000
  14      0.000000000000
  15      0.000000000000
  16      0.000000000000
  17      0.000000000000
  18      0.000000000000
  19      0.000000000000
  20      0.000000000000
  21      0.000000000000
  22      0.000000000000
  23      0.000000000000
  24      0.000000000000
  25      0.000000000000
  26      0.000000000000
  27      0.000000000000
  28      0.000000000000
  29      0.000000000000
  30      0.000000000000
  31      0.000000000000
  32      0.000000000000
  33      0.000000000000
  34      0.000000000000
  35      0.000000000000
  36      0.000000000000
  37      0.000000000000
  38      0.000000000000
  39      0.000000000000
  40      0.000000000000
  41      0.000000000000
  42      0.000000000000
  43      0.000000000000
  44      0.000000000000
  45      0.000000000000
  46      0.000000000000
  47      0.000000000000
  48      0.000000000000
  49      0.000000000000
  50      0.000000000000
  51      0.000000000000
  52      0.000000000000
  53      0.000000000000
  54      0.000000000000
  55      0.000000000000
  56      0.000000000000
 Ene=  -0.62348178156328E+00
 Spin= Alpha
 Occup=    1.000000
   1     -0.173390902459
   2      0.423749477271
   3      0.036832037873
   4     -0.001211417909
   5      0.011422677507
   6     -0.001152342963
   7     -0.000254671490
   8     -0.005706449616
   9     -0.000475515124
  10     -0.001654925489
  11     -0.000326533122
  12      0.008697156294
  13      0.001020198033
  14      0.000023739806
  15      0.107183330287
  16     -0.224753222958
  17     -0.230647652264
  18     -0.003072415992
  19     -0.277374948249
  20     -0.012466989223
  21     -0.001559786057
  22     -0.135672122732
  23     -0.006173621714
  24     -0.007663589402
  25      0.000510852670
  26     -0.005168286197
  27      0.014318221704
  28      0.001314783612
  29      0.100670567355
  30     -0.211000980037
  31     -0.216727996082
  32     -0.154685254186
  33      0.119927993032
  34     -0.168211628127
  35     -0.076737340505
  36      0.058180414761
  37     -0.083510038588
  38     -0.000096523362
  39     -0.006166267591
  40      0.011455642728
  41     -0.001866707535
  42     -0.006578289176
  43      0.101534615338
  44     -0.212825628698
  45     -0.218814623489
  46      0.158384114241
  47      0.105854018334
  48      0.179549077383
  49      0.078588639164
  50      0.051325357091
  51      0.089031457210
  52     -0.000021715279
  53      0.005265307760
  54      0.012182980289
  55     -0.002926835262
  56      0.006107355860
 Ene=  -0.59520477761312E+00
 Spin= Alpha
 Occup=   -0.000000
   1      0.000000000000
   2      0.000000000000
   3      0.000000000000
   4      0.000000000000
   5      0.000000000000
   6      0.000000000000
   7      0.000000000000
   8      0.000000000000
   9      0.000000000000
  10      0.000000000000
  11      0.000000000000
  12      0.000000000000
  13      0.000000000000
  14      0.000000000000
  15      0.000000000000
  16      0.000000000000
  17      0.000000000000
  18      0.000000000000
  19      0.000000000000
  20      0.000000000000
  21      0.000000000000
  22      0.000000000000
  23      0.000000000000
  24      0.000000000000
  25      0.000000000000
  26      0.000000000000
  27      0.000000000000
  28      0.000000000000
  29      0.000000000000
  30      0.000000000000
  31      0.000000000000
  32      0.000000000000
  33      0.000000000000
  34      0.000000000000
  35      0.000000000000
  36      0.000000000000
  37      0.000000000000
  38      0.000000000000
  39      0.000000000000
  40      0.000000000000
  41      0.000000000000
  42      0.000000000000
  43      0.000000000000
  44      0.000000000000
  45      0.000000000000
  46      0.000000000000
  47      0.000000000000
  48      0.000000000000
  49      0.000000000000
  50      0.000000000000
  51      0.000000000000
  52      0.000000000000
  53      0.000000000000
  54      0.000000000000
  55      0.000000000000
  56      0.000000000000
 Ene=  -0.58876861305937E+00
 Spin= Alpha
 Occup=    1.000000
   1     -0.000720623949
   2      0.001854637454
   3     -0.000329560068
   4      0.219395050544
   5     -0.007683515491
   6      0.243835504752
   7      0.028524684452
   8     -0.001050221586
   9      0.031716958976
  10      0.000149678563
  11      0.011302602196
  12      0.000606144761
  13     -0.001106802536
  14      0.012535063115
  15      0.001635650031
  16     -0.003393293566
  17     -0.003904139812
  18      0.210318113950
  19     -0.017188738702
  20      0.233414749024
  21      0.122775008468
  22     -0.009534859459
  23      0.136272422206
  24     -0.000295945395
  25     -0.011014942735
  26     -0.000626985143
  27      0.001358046489
  28     -0.012201907071
  29      0.087979628107
  30     -0.182762985528
  31     -0.211276889788
  32     -0.140082342486
  33      0.237332363134
  34     -0.147897530541
  35     -0.065885157374
  36      0.129845814147
  37     -0.068958038100
  38     -0.002694571821
  39     -0.008846980399
  40      0.009533623484
  41      0.003226777782
  42     -0.009289607432
  43     -0.087907011610
  44      0.182581751850
  45      0.211456435315
  46     -0.145328704361
  47     -0.219118522847
  48     -0.168861528607
  49     -0.068802725741
  50     -0.120896581612
  51     -0.080503093359
  52      0.002454455814
  53     -0.008033459827
  54     -0.010546035437
  55     -0.001436749597
  56     -0.009422690321
 Ene=  -0.58486634693887E+00
 Spin= Alpha
 Occup=    1.000000
   1     -0.000069493258
   2      0.000164091038
   3      0.000023987923
   4     -0.268018106560
   5     -0.007330416128
   6      0.240931947742
   7     -0.110994147493
   8     -0.003147815497
   9      0.099786876482
  10      0.000090893832
  11     -0.001107920840
  12      0.000004477649
  13     -0.000010271395
  14      0.000994129627
  15      0.000182056193
  16     -0.000380411349
  17     -0.000443628692
  18     -0.183968728186
  19     -0.005942912912
  20      0.165318988954
  21     -0.100381684346
  22     -0.003215302503
  23      0.090204978134
  24      0.000173088123
  25      0.012814568753
  26      0.000430726356
  27      0.000878324714
  28     -0.011497177862
  29     -0.000064497373
  30      0.000126048122
  31      0.000197315182
  32     -0.240452056115
  33     -0.006901209827
  34      0.216813326388
  35     -0.133436138693
  36     -0.003814300604
  37      0.120291075579
  38      0.015263672402
  39     -0.006804982898
  40      0.001620896024
  41      0.008413029667
  42      0.006633536617
  43     -0.000042307602
  44      0.000079879701
  45      0.000143448015
  46     -0.243605273987
  47     -0.006886191577
  48      0.218469171227
  49     -0.135351018610
  50     -0.003812917102
  51      0.121407440131
  52     -0.015531533316
  53     -0.006425395958
  54     -0.002138317827
  55     -0.009313164639
  56      0.005248903325
 Ene=  -0.57000696288668E+00
 Spin= Alpha
 Occup=    1.000000
   1      0.012617156942
   2     -0.028539333140
   3     -0.021908954978
   4      0.000771249537
   5      0.358274162110
   6      0.011676689599
   7      0.000205943564
   8      0.065480802184
   9      0.001987643238
  10      0.000368518290
  11     -0.000195471888
  12      0.001327034804
  13     -0.000906360329
  14     -0.000256017588
  15      0.096862214668
  16     -0.199906040573
  17     -0.253033678220
  18     -0.005063878755
  19     -0.368662631927
  20     -0.018186919325
  21     -0.002675011093
  22     -0.183523506780
  23     -0.009264875535
  24     -0.008475545703
  25      0.000493912442
  26     -0.003115038329
  27      0.015280754093
  28      0.001466316597
  29     -0.050621718273
  30      0.103421685055
  31      0.134193004426
  32      0.172727455306
  33      0.087166408906
  34      0.194188380864
  35      0.090821523526
  36      0.058126637043
  37      0.102490354192
  38     -0.003473831177
  39     -0.000615386347
  40     -0.012621246609
  41      0.008672573261