[Molden Format]
[Title]
generated by TRESC, real part2 of MOs of job CO3
 
[Atoms] AU
 C   1   6    0.3364484192    5.8882927452    0.3891081484
 O   2   8    2.6974300312    5.9862747024    0.4085979628
 O   3   8   -0.7714112401    7.4618585764    1.8371371576
 O   4   8   -0.6184572465    4.2284969646   -1.0743142370
[GTO]
  1 0
 s  5 1.0
     1238.4016938000        0.0059599745
      186.2900499200        0.0422621111
       42.2511763500        0.1866575214
       11.6765579300        0.4675815865
        3.5930506500        0.4422897287
 s  1 1.0
        0.4024514700        1.0000000000
 s  1 1.0
        0.1309018300        1.0000000000
 p  3 1.0
        9.4680970600        0.0570294585
        2.0103545100        0.3130471495
        0.5477100500        0.7605135301
 p  1 1.0
        0.1526861400        1.0000000000
 d  1 1.0
        0.8000000000        1.0000000000
 
  2 0
 s  5 1.0
     2266.1767785000        0.0060711540
      340.8701019100        0.0417308970
       77.3631351700        0.1850777598
       21.4796449400        0.4668774046
        6.6589433100        0.4435718061
 s  1 1.0
        0.8097597600        1.0000000000
 s  1 1.0
        0.2553077200        1.0000000000
 p  3 1.0
       17.7215043200        0.0628680198
        3.8635505400        0.3334973703
        1.0480920900        0.7412421661
 p  1 1.0
        0.2764154400        1.0000000000
 d  1 1.0
        1.2000000000        1.0000000000
 
  3 0
 s  5 1.0
     2266.1767785000        0.0060711540
      340.8701019100        0.0417308970
       77.3631351700        0.1850777598
       21.4796449400        0.4668774046
        6.6589433100        0.4435718061
 s  1 1.0
        0.8097597600        1.0000000000
 s  1 1.0
        0.2553077200        1.0000000000
 p  3 1.0
       17.7215043200        0.0628680198
        3.8635505400        0.3334973703
        1.0480920900        0.7412421661
 p  1 1.0
        0.2764154400        1.0000000000
 d  1 1.0
        1.2000000000        1.0000000000
 
  4 0
 s  5 1.0
     2266.1767785000        0.0060711540
      340.8701019100        0.0417308970
       77.3631351700        0.1850777598
       21.4796449400        0.4668774046
        6.6589433100        0.4435718061
 s  1 1.0
        0.8097597600        1.0000000000
 s  1 1.0
        0.2553077200        1.0000000000
 p  3 1.0
       17.7215043200        0.0628680198
        3.8635505400        0.3334973703
        1.0480920900        0.7412421661
 p  1 1.0
        0.2764154400        1.0000000000
 d  1 1.0
        1.2000000000        1.0000000000
 
[5D]
[7F]
[9G]
[MO]
 Ene=   0.95206881006314E+00
 Spin= Alpha
 Occup=    0.000000
   1      0.000000000000
   2      0.000000000000
   3      0.000000000000
   4      0.000000000000
   5      0.000000000000
   6      0.000000000000
   7      0.000000000000
   8      0.000000000000
   9      0.000000000000
  10      0.000000000000
  11      0.000000000000
  12      0.000000000000
  13      0.000000000000
  14      0.000000000000
  15      0.000000000000
  16      0.000000000000
  17      0.000000000000
  18      0.000000000000
  19      0.000000000000
  20      0.000000000000
  21      0.000000000000
  22      0.000000000000
  23      0.000000000000
  24      0.000000000000
  25      0.000000000000
  26      0.000000000000
  27      0.000000000000
  28      0.000000000000
  29      0.000000000000
  30      0.000000000000
  31      0.000000000000
  32      0.000000000000
  33      0.000000000000
  34      0.000000000000
  35      0.000000000000
  36      0.000000000000
  37      0.000000000000
  38      0.000000000000
  39      0.000000000000
  40      0.000000000000
  41      0.000000000000
  42      0.000000000000
  43      0.000000000000
  44      0.000000000000
  45      0.000000000000
  46      0.000000000000
  47      0.000000000000
  48      0.000000000000
  49      0.000000000000
  50      0.000000000000
  51      0.000000000000
  52      0.000000000000
  53      0.000000000000
  54      0.000000000000
  55      0.000000000000
  56      0.000000000000
 Ene=   0.95280167452592E+00
 Spin= Alpha
 Occup=    0.000000
   1      0.000000000000
   2      0.000000000000
   3      0.000000000000
   4      0.000000000000
   5      0.000000000000
   6      0.000000000000
   7      0.000000000000
   8      0.000000000000
   9      0.000000000000
  10      0.000000000000
  11      0.000000000000
  12      0.000000000000
  13      0.000000000000
  14      0.000000000000
  15      0.000000000000
  16      0.000000000000
  17      0.000000000000
  18      0.000000000000
  19      0.000000000000
  20      0.000000000000
  21      0.000000000000
  22      0.000000000000
  23      0.000000000000
  24      0.000000000000
  25      0.000000000000
  26      0.000000000000
  27      0.000000000000
  28      0.000000000000
  29      0.000000000000
  30      0.000000000000
  31      0.000000000000
  32      0.000000000000
  33      0.000000000000
  34      0.000000000000
  35      0.000000000000
  36      0.000000000000
  37      0.000000000000
  38      0.000000000000
  39      0.000000000000
  40      0.000000000000
  41      0.000000000000
  42      0.000000000000
  43      0.000000000000
  44      0.000000000000
  45      0.000000000000
  46      0.000000000000
  47      0.000000000000
  48      0.000000000000
  49      0.000000000000
  50      0.000000000000
  51      0.000000000000
  52      0.000000000000
  53      0.000000000000
  54      0.000000000000
  55      0.000000000000
  56      0.000000000000
 Ene=   0.99617023472005E+00
 Spin= Alpha
 Occup=    0.000000
   1     -0.000062544127
   2     -0.000105224240
   3      0.003948718464
   4     -0.158958779144
   5      0.008253067690
   6     -0.176537384955
   7      0.762558692996
   8     -0.038061994598
   9      0.846936483555
  10      0.002490692352
  11      0.179310387709
  12      0.008989522772
  13     -0.018365041268
  14      0.198779942923
  15     -0.000261765820
  16      0.001589121761
  17     -0.004476812669
  18      0.318519061807
  19     -0.016303549202
  20      0.353744209938
  21     -0.657025399844
  22      0.034955106563
  23     -0.729648976265
  24     -0.000541512423
  25     -0.040510822555
  26     -0.002212219911
  27      0.004038505829
  28     -0.044924071121
  29      0.003906820173
  30     -0.055984262158
  31     -0.308591204292
  32      0.277420817361
  33      0.137975818317
  34      0.313665184532
  35     -0.500878361788
  36     -0.206856784343
  37     -0.564782627364
  38     -0.001427473055
  39      0.000163197629
  40     -0.047279028536
  41      0.012613961157
  42     -0.000674431346
  43     -0.004378867676
  44      0.058798264240
  45      0.304342805411
  46      0.275528868919
  47     -0.165482234696
  48      0.300480171371
  49     -0.498225261396
  50      0.256418358439
  51     -0.544892673077
  52      0.001464978690
  53     -0.003716558377
  54      0.047173961090
  55     -0.012333683492
  56     -0.003266395377
 Ene=   0.10242770661132E+01
 Spin= Alpha
 Occup=    0.000000
   1      0.000000000000
   2      0.000000000000
   3      0.000000000000
   4      0.000000000000
   5      0.000000000000
   6      0.000000000000
   7      0.000000000000
   8      0.000000000000
   9      0.000000000000
  10      0.000000000000
  11      0.000000000000
  12      0.000000000000
  13      0.000000000000
  14      0.000000000000
  15      0.000000000000
  16      0.000000000000
  17      0.000000000000
  18      0.000000000000
  19      0.000000000000
  20      0.000000000000
  21      0.000000000000
  22      0.000000000000
  23      0.000000000000
  24      0.000000000000
  25      0.000000000000
  26      0.000000000000
  27      0.000000000000
  28      0.000000000000
  29      0.000000000000
  30      0.000000000000
  31      0.000000000000
  32      0.000000000000
  33      0.000000000000
  34      0.000000000000
  35      0.000000000000
  36      0.000000000000
  37      0.000000000000
  38      0.000000000000
  39      0.000000000000
  40      0.000000000000
  41      0.000000000000
  42      0.000000000000
  43      0.000000000000
  44      0.000000000000
  45      0.000000000000
  46      0.000000000000
  47      0.000000000000
  48      0.000000000000
  49      0.000000000000
  50      0.000000000000
  51      0.000000000000
  52      0.000000000000
  53      0.000000000000
  54      0.000000000000
  55      0.000000000000
  56      0.000000000000
 Ene=   0.10386664296718E+01
 Spin= Alpha
 Occup=    0.000000
   1      0.010998115020
   2     -0.161058102316
   3     -0.761068101323
   4      0.001508881649
   5      0.239271251868
   6      0.009651972038
   7     -0.009186903342
   8     -1.088619286576
   9     -0.047197151695
  10     -0.087319736491
  11      0.007863983031
  12     -0.122393117758
  13      0.176606475440
  14      0.015663856060
  15      0.010542785434
  16     -0.034820953212
  17      0.623348644529
  18     -0.005336568956
  19     -0.156179883401
  20     -0.012877707328
  21      0.008556327645
  22      0.360184739101
  23      0.024099814887
  24     -0.018699267504
  25     -0.000991721766
  26      0.043378564052
  27      0.023095061401
  28      0.002078708585
  29      0.052672638346
  30     -0.358948965804
  31      0.520662972764
  32     -0.093780821690
  33     -0.519573736085
  34     -0.121516385349
  35      0.026985987420
  36      1.058064828737
  37      0.065248283374
  38      0.014396432522
  39      0.029381217285
  40      0.007979229150
  41     -0.028540643442
  42      0.031139317671
  43      0.052458338850
  44     -0.357610345995
  45      0.515893941081
  46      0.090918834167
  47     -0.543482268213
  48      0.083144495528
  49     -0.019195709628
  50      1.079046732988
  51      0.014561928522
  52      0.014176956823
  53     -0.031303391945
  54      0.005380225999
  55     -0.023576392477
  56     -0.036200856681
 Ene=   0.10579336473181E+01
 Spin= Alpha
 Occup=    0.000000
   1      0.000198751975
   2     -0.003057330517
   3     -0.013162785071
   4     -0.017347413031
   5      0.004353559372
   6     -0.019149111433
   7      0.224463850711
   8     -0.028442760715
   9      0.248695414589
  10     -0.001097349495
  11     -0.000429782942
  12     -0.001678544407
  13      0.002256928275
  14     -0.000394519335
  15      0.000160834957
  16     -0.000621979149
  17      0.010113035130
  18      0.402574205241
  19     -0.023132811081
  20      0.446982462361
  21     -0.646946571933
  22      0.038648120215
  23     -0.718264499257
  24     -0.000872243754
  25     -0.042884734740
  26     -0.001405694177
  27      0.004624683149
  28     -0.047497629296
  29      0.000271788559
  30     -0.004438965408
  31     -0.129113465320
  32     -0.149225045999
  33     -0.449343618487
  34     -0.180433656547
  35      0.199314683689
  36      0.626248568673
  37      0.241849245225
  38      0.019014600956
  39      0.019259490070
  40      0.009273978951
  41     -0.036110220023
  42      0.019424947890
  43      0.001582634396
  44     -0.008140573464
  45      0.147857315673
  46     -0.139211765718
  47      0.449340803292
  48     -0.140416340320
  49      0.189111665014
  50     -0.615037767676
  51      0.190613064230
  52     -0.018083256841
  53      0.020047904817
  54     -0.007197434658
  55      0.031484141291
  56      0.024115206506
 Ene=   0.10583381497444E+01
 Spin= Alpha
 Occup=    0.000000
   1      0.000000000000
   2      0.000000000000
   3      0.000000000000
   4      0.000000000000
   5      0.000000000000
   6      0.000000000000
   7      0.000000000000
   8      0.000000000000
   9      0.000000000000
  10      0.000000000000
  11      0.000000000000
  12      0.000000000000
  13      0.000000000000
  14      0.000000000000
  15      0.000000000000
  16      0.000000000000
  17      0.000000000000
  18      0.000000000000
  19      0.000000000000
  20      0.000000000000
  21      0.000000000000
  22      0.000000000000
  23      0.000000000000
  24      0.000000000000
  25      0.000000000000
  26      0.000000000000
  27      0.000000000000
  28      0.000000000000
  29      0.000000000000
  30      0.000000000000
  31      0.000000000000
  32      0.000000000000
  33      0.000000000000
  34      0.000000000000
  35      0.000000000000
  36      0.000000000000
  37      0.000000000000
  38      0.000000000000
  39      0.000000000000
  40      0.000000000000
  41      0.000000000000
  42      0.000000000000
  43      0.000000000000
  44      0.000000000000
  45      0.000000000000
  46      0.000000000000
  47      0.000000000000
  48      0.000000000000
  49      0.000000000000
  50      0.000000000000
  51      0.000000000000
  52      0.000000000000
  53      0.000000000000
  54      0.000000000000
  55      0.000000000000
  56      0.000000000000
 Ene=   0.10756495298420E+01
 Spin= Alpha
 Occup=    0.000000
   1      0.000069779374
   2     -0.001465318002
   3     -0.003858131187
   4     -0.062188954110
   5     -0.002213670192
   6      0.055893168165
   7      0.898400288158
   8      0.027214020419
   9     -0.807676853384
  10      0.000132652070
  11     -0.007395383705
  12     -0.000286607105
  13     -0.000754547863
  14      0.006613665041
  15      0.000327525014
  16     -0.002161402964
  17      0.003638711815
  18      0.399643002886
  19      0.012015485612
  20     -0.359296491954
  21     -0.710915537044
  22     -0.022650645375
  23      0.639081184435
  24     -0.000376211092
  25     -0.021542323440
  26     -0.000727948146
  27     -0.001570368059
  28      0.019326364203
  29      0.000198012960
  30     -0.001281597413
  31      0.002722252200
  32      0.392147923926
  33      0.012159984138
  34     -0.352124361935
  35     -0.724174526779
  36     -0.022105071612
  37      0.649554368585
  38     -0.034050798155
  39      0.008040500433
  40     -0.003888398818
  41     -0.019015667292
  42     -0.008415533643
  43      0.000197783310
  44     -0.001280686640
  45      0.002716248655
  46      0.390091011121
  47      0.012118945992
  48     -0.351078826981
  49     -0.720818535151
  50     -0.022106196259
  51      0.649473914123
  52      0.034182934961
  53      0.007270858424
  54      0.004449746623
  55      0.020257249640
  56     -0.005310705430
 Ene=   0.11107557434379E+01
 Spin= Alpha
 Occup=    0.000000
   1      0.000000000000
   2      0.000000000000
   3      0.000000000000
   4      0.000000000000
   5      0.000000000000
   6      0.000000000000
   7      0.000000000000
   8      0.000000000000
   9      0.000000000000
  10      0.000000000000
  11      0.000000000000
  12      0.000000000000
  13      0.000000000000
  14      0.000000000000
  15      0.000000000000
  16      0.000000000000
  17      0.000000000000
  18      0.000000000000
  19      0.000000000000
  20      0.000000000000
  21      0.000000000000
  22      0.000000000000
  23      0.000000000000
  24      0.000000000000
  25      0.000000000000
  26      0.000000000000
  27      0.000000000000
  28      0.000000000000
  29      0.000000000000
  30      0.000000000000
  31      0.000000000000
  32      0.000000000000
  33      0.000000000000
  34      0.000000000000
  35      0.000000000000
  36      0.000000000000
  37      0.000000000000
  38      0.000000000000
  39      0.000000000000
  40      0.000000000000
  41      0.000000000000
  42      0.000000000000
  43      0.000000000000
  44      0.000000000000
  45      0.000000000000
  46      0.000000000000
  47      0.000000000000
  48      0.000000000000
  49      0.000000000000
  50      0.000000000000
  51      0.000000000000
  52      0.000000000000
  53      0.000000000000
  54      0.000000000000
  55      0.000000000000
  56      0.000000000000
 Ene=   0.11187832655387E+01
 Spin= Alpha
 Occup=    0.000000
   1      0.000000000000
   2      0.000000000000
   3      0.000000000000
   4      0.000000000000
   5      0.000000000000
   6      0.000000000000
   7      0.000000000000
   8      0.000000000000
   9      0.000000000000
  10      0.000000000000
  11      0.000000000000
  12      0.000000000000
  13      0.000000000000
  14      0.000000000000
  15      0.000000000000
  16      0.000000000000
  17      0.000000000000
  18      0.000000000000
  19      0.000000000000
  20      0.000000000000
  21      0.000000000000
  22      0.000000000000
  23      0.000000000000
  24      0.000000000000
  25      0.000000000000
  26      0.000000000000
  27      0.000000000000
  28      0.000000000000
  29      0.000000000000
  30      0.000000000000
  31      0.000000000000
  32      0.000000000000
  33      0.000000000000
  34      0.000000000000
  35      0.000000000000
  36      0.000000000000
  37      0.000000000000
  38      0.000000000000
  39      0.000000000000
  40      0.000000000000
  41      0.000000000000
  42      0.000000000000
  43      0.000000000000
  44      0.000000000000
  45      0.000000000000
  46      0.000000000000
  47      0.000000000000
  48      0.000000000000
  49      0.000000000000
  50      0.000000000000
  51      0.000000000000
  52      0.000000000000
  53      0.000000000000
  54      0.000000000000
  55      0.000000000000
  56      0.000000000000
 Ene=   0.11376221591069E+01
 Spin= Alpha
 Occup=    0.000000
   1      0.051083766329
   2     -0.869571916995
   3     -3.243786883642
   4     -0.001265072987
   5     -0.126867020361
   6     -0.005594462730
   7     -0.005352836751
   8     -0.262076477576
   9     -0.009999330986
  10      0.045127158541
  11      0.000299967520
  12     -0.029759475518
  13     -0.071648814424
  14     -0.005437621640
  15      0.208649765458
  16     -1.395888461528
  17      2.957366137354
  18      0.000212248149
  19      0.122668460188
  20      0.005593940403
  21     -0.007423150041
  22     -1.042946117625
  23     -0.044730747503
  24      0.015107374010
  25     -0.002460791799
  26      0.044290065193
  27     -0.035418752759
  28     -0.003528774416
  29      0.148016348760
  30     -0.987813869225
  31      2.118466196961
  32      0.068126887891
  33      0.049627116658
  34      0.078701586109
  35     -0.456838583542
  36      0.171508718401
  37     -0.505072520342
  38     -0.029945477809
  39      0.005827113714
  40      0.006422171082
  41      0.050183557886
  42      0.010038465391
  43      0.147584737048
  44     -0.985409877430
  45      2.113170932788
  46     -0.068220248957
  47      0.055995864318
  48     -0.072751987950
  49      0.460124471495
  50      0.124650546610
  51      0.513324209424
  52     -0.030084012114
  53     -0.004959538272
  54      0.006009417467
  55      0.050846384383
  56     -0.001946482172
 Ene=   0.11583862725700E+01
 Spin= Alpha
 Occup=    0.000000
   1      0.000000000000
   2      0.000000000000
   3      0.000000000000
   4      0.000000000000
   5      0.000000000000
   6      0.000000000000
   7      0.000000000000
   8      0.000000000000
   9      0.000000000000
  10      0.000000000000
  11      0.000000000000
  12      0.000000000000
  13      0.000000000000
  14      0.000000000000
  15      0.000000000000
  16      0.000000000000
  17      0.000000000000
  18      0.000000000000
  19      0.000000000000
  20      0.000000000000
  21      0.000000000000
  22      0.000000000000
  23      0.000000000000
  24      0.000000000000
  25      0.000000000000
  26      0.000000000000
  27      0.000000000000
  28      0.000000000000
  29      0.000000000000
  30      0.000000000000
  31      0.000000000000
  32      0.000000000000
  33      0.000000000000
  34      0.000000000000
  35      0.000000000000
  36      0.000000000000
  37      0.000000000000
  38      0.000000000000
  39      0.000000000000
  40      0.000000000000
  41      0.000000000000
  42      0.000000000000
  43      0.000000000000
  44      0.000000000000
  45      0.000000000000
  46      0.000000000000
  47      0.000000000000
  48      0.000000000000
  49      0.000000000000
  50      0.000000000000
  51      0.000000000000
  52      0.000000000000
  53      0.000000000000
  54      0.000000000000
  55      0.000000000000
  56      0.000000000000
 Ene=   0.14561249459079E+01
 Spin= Alpha
 Occup=    0.000000
   1     -0.015744040196
   2      0.156417725466
   3      0.360917584837
   4     -0.003920439402
   5     -0.439955465546
   6     -0.018706127001
   7     -0.030335025144
   8     -3.107171047733
   9     -0.135937931645
  10      0.114652883399
  11     -0.010906548283
  12      0.230828582329
  13     -0.246517857987
  14     -0.022935253905
  15      0.182118138540
  16     -1.381677093850
  17      3.753772834075
  18      0.000222630135
  19      0.063252618558
  20      0.002205000039
  21     -0.009202948786
  22     -1.179824175238
  23     -0.046593674228
  24      0.038060452627
  25     -0.001395900224
  26     -0.004142289646
  27     -0.064875573500
  28     -0.004979335785
  29     -0.118722558085
  30      0.912632014426
  31     -2.273076802458
  32     -0.103797846332
  33     -0.219071455572
  34     -0.122676580934
  35      0.743781972505
  36      0.368707650474
  37      0.838742609784
  38     -0.008658851588
  39     -0.022405521074
  40      0.055417477043
  41      0.005315999180
  42     -0.022737967482
  43     -0.119516049795
  44      0.918583851467
  45     -2.291161400003
  46      0.100719666269
  47     -0.228777636173
  48      0.104483711548
  49     -0.739457348394
  50      0.442701010481
  51     -0.808652734824
  52     -0.008523794649
  53      0.018363480774
  54      0.057614347804
  55      0.000454845787
  56      0.022423858403
 Ene=   0.14758332224470E+01
 Spin= Alpha
 Occup=    0.000000
   1     -0.000000106610
   2      0.000013410704
   3      0.000005606114
   4      0.004644319184
   5     -0.000276901868
   6      0.004878231393
   7      0.033162585755
   8     -0.002112571166
   9      0.039019880907
  10     -0.748647843902
  11      0.001650189380
  12     -0.091737250484
  13     -0.430837395303
  14     -0.034036359208
  15      0.000017885150
  16     -0.000139514586
  17      0.000350796201
  18      0.002731558798
  19     -0.000111228520
  20      0.002292483858
  21     -0.006404407751
  22      0.000379612484
  23     -0.010944077750
  24     -0.080784411823
  25      0.003297132214
  26     -0.009790562348
  27     -0.046470490825
  28     -0.004600657276
  29     -0.002422403785
  30      0.018586562089
  31     -0.053241823873
  32      0.043988131822
  33      0.003264828515
  34     -0.038799597447
  35      0.152670847260
  36     -0.008421197079
  37     -0.122511245850
  38      0.159702608159
  39     -0.101571141380
  40      0.016789497174
  41      0.085526274973
  42      0.095743029932
  43      0.002404187682
  44     -0.018449636299
  45      0.052872008405
  46     -0.043506441532
  47     -0.003347749979
  48      0.039692112885
  49     -0.137691672464
  50      0.007707774531
  51      0.139493591325
  52      0.163866342252
  53      0.096152826992
  54      0.022684562228
  55      0.100781252517
  56     -0.081531203641
 Ene=   0.14764885024022E+01
 Spin= Alpha
 Occup=    0.000000
   1      0.000000000000
   2      0.000000000000
   3      0.000000000000
   4      0.000000000000
   5      0.000000000000
   6      0.000000000000
   7      0.000000000000
   8      0.000000000000
   9      0.000000000000
  10      0.000000000000
  11      0.000000000000
  12      0.000000000000
  13      0.000000000000
  14      0.000000000000
  15      0.000000000000
  16      0.000000000000
  17      0.000000000000
  18      0.000000000000
  19      0.000000000000
  20      0.000000000000
  21      0.000000000000
  22      0.000000000000
  23      0.000000000000
  24      0.000000000000
  25      0.000000000000
  26      0.000000000000
  27      0.000000000000
  28      0.000000000000
  29      0.000000000000
  30      0.000000000000
  31      0.000000000000
  32      0.000000000000
  33      0.000000000000
  34      0.000000000000
  35      0.000000000000
  36      0.000000000000
  37      0.000000000000
  38      0.000000000000
  39      0.000000000000
  40      0.000000000000
  41      0.000000000000
  42      0.000000000000
  43      0.000000000000
  44      0.000000000000
  45      0.000000000000
  46      0.000000000000
  47      0.000000000000
  48      0.000000000000
  49      0.000000000000
  50      0.000000000000
  51      0.000000000000
  52      0.000000000000
  53      0.000000000000
  54      0.000000000000
  55      0.000000000000
  56      0.000000000000
 Ene=   0.14858662367660E+01
 Spin= Alpha
 Occup=    0.000000
   1      0.000000000000
   2      0.000000000000
   3      0.000000000000
   4      0.000000000000
   5      0.000000000000
   6      0.000000000000
   7      0.000000000000
   8      0.000000000000
   9      0.000000000000
  10      0.000000000000
  11      0.000000000000
  12      0.000000000000
  13      0.000000000000
  14      0.000000000000
  15      0.000000000000
  16      0.000000000000
  17      0.000000000000
  18      0.000000000000
  19      0.000000000000
  20      0.000000000000
  21      0.000000000000
  22      0.000000000000
  23      0.000000000000
  24      0.000000000000
  25      0.000000000000
  26      0.000000000000
  27      0.000000000000
  28      0.000000000000
  29      0.000000000000
  30      0.000000000000
  31      0.000000000000
  32      0.000000000000
  33      0.000000000000
  34      0.000000000000
  35      0.000000000000
  36      0.000000000000
  37      0.000000000000
  38      0.000000000000
  39      0.000000000000
  40      0.000000000000
  41      0.000000000000
  42      0.000000000000
  43      0.000000000000
  44      0.000000000000
  45      0.000000000000
  46      0.000000000000
  47      0.000000000000
  48      0.000000000000
  49      0.000000000000
  50      0.000000000000
  51      0.000000000000
  52      0.000000000000
  53      0.000000000000
  54      0.000000000000
  55      0.000000000000
  56      0.000000000000
 Ene=   0.14869238787713E+01
 Spin= Alpha
 Occup=    0.000000
   1     -0.000058673599
   2     -0.000329666393
   3      0.000983246337
   4     -0.339838929781
   5      0.019201563800
   6     -0.377375914650
   7     -2.644471866205
   8      0.145409814119
   9     -2.936613572932
  10     -0.007254384328
  11      0.244069155747
  12      0.010832562870
  13     -0.029261006946
  14      0.270316385373
  15     -0.000498840690
  16      0.004064546110
  17     -0.008715758208
  18     -0.178134264571
  19      0.009476441298
  20     -0.197846853651
  21      0.649978042632
  22     -0.031202606608
  23      0.721850559149
  24     -0.001648887876
  25     -0.031416901633
  26     -0.001302637795
  27      0.002804900296
  28     -0.034947633107
  29      0.183460684619
  30     -1.412025699757
  31      4.073267709849
  32     -0.026810863093
  33     -0.148965963942
  34     -0.036171128018
  35     -0.569212390365
  36      0.981258925641
  37     -0.603733862111
  38     -0.009827650201
  39      0.038301162031
  40     -0.046457900726
  41      0.029116116160
  42      0.045514813475
  43     -0.183171006036
  44      1.410077976056
  45     -4.066344281927
  46     -0.025943413866
  47      0.152960478464
  48     -0.022360339269
  49     -0.584696625069
  50     -0.923223486594
  51     -0.677815490957
  52      0.014974776502
  53      0.036220978123
  54      0.050712969922
  55     -0.033869184388
  56      0.037403143528
 Ene=   0.14952060876468E+01
 Spin= Alpha
 Occup=    0.000000
   1      0.000000000000
   2      0.000000000000
   3      0.000000000000
   4      0.000000000000
   5      0.000000000000
   6      0.000000000000
   7      0.000000000000
   8      0.000000000000
   9      0.000000000000
  10      0.000000000000
  11      0.000000000000
  12      0.000000000000
  13      0.000000000000
  14      0.000000000000
  15      0.000000000000
  16      0.000000000000
  17      0.000000000000
  18      0.000000000000
  19      0.000000000000
  20      0.000000000000
  21      0.000000000000
  22      0.000000000000
  23      0.000000000000
  24      0.000000000000
  25      0.000000000000
  26      0.000000000000
  27      0.000000000000
  28      0.000000000000
  29      0.000000000000
  30      0.000000000000
  31      0.000000000000
  32      0.000000000000
  33      0.000000000000
  34      0.000000000000
  35      0.000000000000
  36      0.000000000000
  37      0.000000000000
  38      0.000000000000
  39      0.000000000000
  40      0.000000000000
  41      0.000000000000
  42      0.000000000000
  43      0.000000000000
  44      0.000000000000
  45      0.000000000000
  46      0.000000000000
  47      0.000000000000
  48      0.000000000000
  49      0.000000000000
  50      0.000000000000
  51      0.000000000000
  52      0.000000000000
  53      0.000000000000
  54      0.000000000000
  55      0.000000000000
  56      0.000000000000
 Ene=   0.15004618575075E+01
 Spin= Alpha
 Occup=    0.000000
   1      0.000036541139
   2     -0.000359714999
   3     -0.000687078690
   4     -0.011941155744
   5      0.000693179427
   6      0.010720119849
   7      0.054674690370
   8      0.009889615071
   9     -0.049269353101
  10      0.002484453720
  11      0.655555140679
  12      0.021264296077
  13      0.040271820222
  14     -0.588571757358
  15     -0.000472140597
  16      0.003591299981
  17     -0.009893856706
  18     -0.053961107552
  19     -0.001765213753
  20      0.048470534448
  21     -0.190052120500
  22     -0.002463232144
  23      0.171148519535
  24     -0.003483340063
  25     -0.187440802476
  26     -0.006437481021
  27     -0.012677319908
  28      0.168242391709
  29      0.000309688472
  30     -0.002404932910
  31      0.006132662041
  32      0.030488792369
  33      0.001404119841
  34     -0.026882634208
  35      0.046066601066
  36      0.000392021479
  37     -0.045470965057
  38      0.120306859884
  39      0.017966317159
  40      0.015041444597
  41      0.070471034762