[Molden Format]
[Title]
generated by TRESC, imaginary part1 of MOs of job SCN
 
[Atoms] AU
 S   1  16    0.0000000000    0.0000000000    1.9184736755
 C   2   6    0.0000000000    0.0000000000   -1.1567057569
 N   3   7    0.0000000000    0.0000000000   -3.3890492760
[GTO]
  1 0
 s  5 1.0
    10081.3659290000        0.0067330718
     1468.8676987000        0.0423201277
      327.2465016600        0.1866835343
       90.5285201140        0.4849802687
       27.5058308280        0.4517376429
 s  3 1.0
       46.3853988360       -0.0950589434
        5.0228188449        0.5843701906
        2.0306206045        0.5413909427
 s  1 1.0
        0.3606627882        1.0000000000
 s  1 1.0
        0.1371410729        1.0000000000
 p  5 1.0
      604.8788900300        0.0002353489
      140.0897861900        0.0017386166
       44.4994657800        0.0077865988
       16.4748871580        0.0220140918
        6.5229645048        0.0378945448
 p  5 1.0
      270.9504306400        0.0092081513
       62.5377853170        0.0653131413
       19.3546142200        0.2445470601
        6.7163477485        0.4820783852
        2.4098646724        0.3917477785
 p  1 1.0
        0.6191509478        1.0000000000
 p  1 1.0
        0.1701457548        1.0000000000
 d  1 1.0
        0.5500000000        1.0000000000
 
  2 0
 s  5 1.0
     1231.7975026000        0.0058423196
      185.5974766200        0.0415113222
       42.0875016200        0.1832849990
       11.6300369400        0.4683526005
        3.5840894779        0.4430601820
 s  1 1.0
        0.4029351893        1.0000000000
 s  1 1.0
        0.1309419451        1.0000000000
 p  3 1.0
        9.4821246358        0.0381720490
        2.0121097169        0.2099973699
        0.5481253660        0.5104097902
 p  1 1.0
        0.1527756940        1.0000000000
 d  1 1.0
        0.8000000000        1.0000000000
 
  3 0
 s  5 1.0
     1706.0150550000        0.0058639453
      255.9938356800        0.0413450288
       58.1565771970        0.1820914202
       16.1430707430        0.4678591214
        4.9963209539        0.4434151324
 s  1 1.0
        0.5882550288        1.0000000000
 s  1 1.0
        0.1877013255        1.0000000000
 p  3 1.0
       13.5897862110        0.0400190920
        2.9274822154        0.2175789499
        0.7994670210        0.5117738303
 p  1 1.0
        0.2195247995        1.0000000000
 d  1 1.0
        1.0000000000        1.0000000000
 
[5D]
[7F]
[9G]
[MO]
 Ene=  -0.89352744742330E+02
 Spin= Alpha
 Occup=    1.000000
   1     -0.982380031588
   2     -0.022134790957
   3      0.009664781416
   4     -0.003089184492
   5     -0.000606666170
   6      0.000000010505
   7      0.000000008439
   8      0.000844774320
   9     -0.000000016184
  10     -0.000000010816
  11     -0.000848225508
  12      0.000000003937
  13      0.000000018752
  14     -0.000622273317
  15     -0.000000002721
  16     -0.000000006319
  17      0.000442958110
  18     -0.000000000066
  19      0.000000000192
  20      0.000000474500
  21     -0.000000006795
  22      0.000124666148
  23      0.000230584023
  24      0.003598777653
  25     -0.000365646477
  26      0.000000000164
  27     -0.000000000010
  28     -0.005041046113
  29     -0.000000000249
  30      0.000000001798
  31     -0.000994002391
  32     -0.000000000698
  33     -0.000000000581
  34     -0.000000018664
  35      0.000000001244
  36     -0.000115121938
  37      0.001344602875
  38     -0.006790234382
  39      0.000441201767
  40     -0.000000010218
  41      0.000000000278
  42     -0.002234583337
  43      0.000000004423
  44     -0.000000002644
  45      0.000106092306
  46     -0.000000000400
  47     -0.000000000128
  48     -0.000000014198
  49     -0.000000004888
 Ene=  -0.89347885088283E+02
 Spin= Alpha
 Occup=    0.000000
   1     -0.000000002911
   2     -0.000000000068
   3      0.000000000039
   4     -0.000000000005
   5     -0.000000000351
   6     -0.000000037806
   7     -0.000000501534
   8      0.000000000223
   9      0.000000031373
  10      0.000000416624
  11     -0.000000000019
  12     -0.000000005629
  13     -0.000000074202
  14     -0.000000000002
  15      0.000000001875
  16      0.000000024729
  17      0.000000000013
  18      0.000000000860
  19      0.000000010424
  20      0.000000000002
  21      0.000000000012
  22     -0.000000000004
  23     -0.000000000002
  24      0.000000000014
  25      0.000000000011
  26     -0.000000000234
  27     -0.000000003215
  28     -0.000000000038
  29     -0.000000000440
  30     -0.000000005824
  31     -0.000000000017
  32      0.000000001339
  33      0.000000018050
  34     -0.000000000002
  35     -0.000000000002
  36     -0.000000000003
  37      0.000000000017
  38     -0.000000000045
  39      0.000000000017
  40      0.000000000291
  41      0.000000003931
  42     -0.000000000016
  43      0.000000000294
  44      0.000000003888
  45      0.000000000005
  46      0.000000000026
  47      0.000000000331
  48     -0.000000000001
  49     -0.000000000005
 Ene=  -0.14446232748584E+02
 Spin= Alpha
 Occup=    1.000000
   1     -0.000005344113
   2      0.000045953019
   3     -0.000217559315
   4     -0.001191377097
   5      0.000080656176
   6      0.000000007961
   7     -0.000000003512
   8     -0.000101391855
   9     -0.000000003939
  10      0.000000000138
  11      0.000118070596
  12      0.000000000724
  13     -0.000000000766
  14      0.000679785983
  15     -0.000000000348
  16      0.000000000474
  17     -0.000099858345
  18      0.000000000156
  19     -0.000000000189
  20     -0.000000008350
  21      0.000000049067
  22     -0.000033128174
  23     -0.000201356130
  24     -0.002048685619
  25     -0.000348654313
  26     -0.000000000002
  27      0.000000000161
  28      0.003166483178
  29      0.000000000205
  30     -0.000000000648
  31      0.000286731779
  32     -0.000000000042
  33     -0.000000000248
  34      0.000000763324
  35     -0.000000027323
  36     -0.104707641410
  37     -0.004689055464
  38      0.005636750000
  39     -0.000523414750
  40      0.000000000266
  41     -0.000000002808
  42      0.001546499016
  43     -0.000000000389
  44      0.000000001599
  45     -0.000122839544
  46     -0.000000000012
  47     -0.000000000062
  48     -0.000012350765
  49     -0.000000384369
 Ene=  -0.14437651803862E+02
 Spin= Alpha
 Occup=    0.000000
   1      0.000000000029
   2     -0.000000000078
   3     -0.000000000092
   4     -0.000000001121
   5     -0.000000003031
   6     -0.000000310080
   7     -0.000000032522
   8     -0.000000000859
   9      0.000000152013
  10      0.000000015827
  11      0.000000000083
  12     -0.000000039285
  13     -0.000000003768
  14      0.000000000822
  15      0.000000060380
  16      0.000000006076
  17     -0.000000000453
  18     -0.000000027880
  19     -0.000000003053
  20      0.000000000063
  21     -0.000000000014
  22     -0.000000000205
  23      0.000000000846
  24     -0.000000000497
  25     -0.000000001085
  26      0.000000111932
  27      0.000000012256
  28      0.000000001746
  29     -0.000000142475
  30     -0.000000014478
  31      0.000000001243
  32      0.000000117720
  33      0.000000011523
  34      0.000000000006
  35      0.000000000029
  36      0.000000000663
  37     -0.000000001277
  38      0.000000001870
  39     -0.000000003760
  40     -0.000000443662
  41     -0.000000046348
  42      0.000000001546
  43      0.000000234806
  44      0.000000023948
  45     -0.000000000613
  46     -0.000000122414
  47     -0.000000018114
  48     -0.000000000071
  49     -0.000000000740
 Ene=  -0.10328174368928E+02
 Spin= Alpha
 Occup=    0.000000
   1      0.000000000078
   2     -0.000000000148
   3     -0.000000000832
   4      0.000000000593
   5      0.000000050565
   6      0.000001052292
   7     -0.000000014253
   8     -0.000000007935
   9     -0.000000116202
  10      0.000000001588
  11      0.000000005630
  12      0.000000103960
  13     -0.000000001421
  14     -0.000000002214
  15     -0.000000037985
  16      0.000000000519
  17     -0.000000000274
  18      0.000000033957
  19     -0.000000000472
  20     -0.000000000011
  21     -0.000000000004
  22      0.000000000098
  23      0.000000000278
  24     -0.000000001949
  25      0.000000000298
  26     -0.000000042601
  27      0.000000000651
  28      0.000000001041
  29      0.000000047561
  30     -0.000000000670
  31      0.000000000949
  32     -0.000000349699
  33      0.000000004431
  34     -0.000000000006
  35      0.000000000005
  36      0.000000000072
  37     -0.000000000671
  38      0.000000002021
  39     -0.000000000273
  40     -0.000000080316
  41      0.000000001109
  42      0.000000000601
  43      0.000000009802
  44     -0.000000000132
  45     -0.000000000236
  46      0.000000215925
  47     -0.000000002926
  48      0.000000000029
  49     -0.000000000047
 Ene=  -0.10325041820673E+02
 Spin= Alpha
 Occup=    1.000000
   1      0.000043691180
   2     -0.000353426583
   3      0.000848257706
   4     -0.011376756007
   5     -0.001135205961
   6     -0.000000026108
   7     -0.000000081874
   8      0.001436683337
   9     -0.000000009218
  10      0.000000027368
  11     -0.001353074851
  12     -0.000000000649
  13     -0.000000010218
  14      0.005695405013
  15      0.000000000408
  16      0.000000004454
  17      0.001084525843
  18     -0.000000000048
  19     -0.000000000166
  20     -0.000000365093
  21     -0.000000029296
  22     -0.503037481002
  23     -0.024499438249
  24      0.002082829573
  25      0.000657411151
  26      0.000000000577
  27     -0.000000000076
  28      0.019070644468
  29     -0.000000000463
  30     -0.000000001246
  31     -0.002137172851
  32     -0.000000000127
  33      0.000000000244
  34      0.000009862222
  35     -0.000000039228
  36      0.000277393476
  37     -0.000365526426
  38      0.020481748416
  39      0.001034026229
  40     -0.000000000534
  41      0.000000000443
  42      0.008485750322
  43      0.000000000300
  44      0.000000000386
  45      0.000603127703
  46     -0.000000000383
  47      0.000000000129
  48     -0.000001631625
  49      0.000000050671
 Ene=  -0.80944640611692E+01
 Spin= Alpha
 Occup=    1.000000
   1      0.306126285934
   2     -1.014988033835
   3     -0.048777744234
   4      0.011652652797
   5     -0.000017961471
   6      0.000000351290
   7      0.000000060057
   8      0.007502660794
   9     -0.000001300088
  10      0.000000183483
  11      0.002289158430
  12      0.000000051577
  13      0.000000428064
  14      0.002220377944
  15     -0.000000148589
  16     -0.000000150259
  17     -0.001289512385
  18     -0.000000031183
  19      0.000000007762
  20     -0.000455963334
  21     -0.000000002059
  22     -0.000075854824
  23     -0.000728241227
  24     -0.009744760360
  25      0.001331226755
  26     -0.000000000092
  27     -0.000000001629
  28      0.014183210940
  29      0.000000013890
  30      0.000000087797
  31      0.001564941122
  32     -0.000000010582
  33     -0.000000015706
  34      0.000012764893
  35      0.000000003452
  36      0.000228090237
  37     -0.002833030595
  38      0.018368860021
  39     -0.000624083425
  40     -0.000000275371
  41      0.000000027527
  42      0.005924219217
  43      0.000000107270
  44     -0.000000151368
  45     -0.000037094564
  46     -0.000000004652
  47     -0.000000008665
  48     -0.000000963922
  49     -0.000000158591
 Ene=  -0.80898166212491E+01
 Spin= Alpha
 Occup=    0.000000
   1     -0.000000000048
   2      0.000000000204
   3     -0.000000000300
   4      0.000000000290
   5      0.000000005639
   6     -0.000003276402
   7      0.000037730623
   8      0.000000001634
   9     -0.000001976535
  10      0.000022382760
  11     -0.000000000025
  12     -0.000000355971
  13      0.000004059004
  14     -0.000000000076
  15      0.000000127543
  16     -0.000001467076
  17     -0.000000000393
  18      0.000000002450
  19      0.000000026945
  20     -0.000000000051
  21     -0.000000000107
  22     -0.000000000906
  23      0.000000000026
  24     -0.000000000077
  25     -0.000000000476
  26      0.000000000293
  27     -0.000000001407
  28      0.000000000152
  29     -0.000000032169
  30      0.000000379406
  31      0.000000000215
  32      0.000000016588
  33     -0.000000182986
  34      0.000000000106
  35      0.000000000082
  36     -0.000000000105
  37     -0.000000000108
  38      0.000000000177
  39     -0.000000000294
  40      0.000000002643
  41     -0.000000027504
  42     -0.000000000027
  43      0.000000014655
  44     -0.000000172761
  45     -0.000000000098
  46      0.000000004127
  47     -0.000000043821
  48      0.000000000000
  49      0.000000000123
 Ene=  -0.60195011079135E+01
 Spin= Alpha
 Occup=    0.702722
   1      0.000000196011
   2     -0.000000635494
   3     -0.000000133488
   4     -0.000000016712
   5      0.000000002815
   6      0.009780733057
   7     -0.006027301980
   8      0.000000019830
   9      0.551482111402
  10     -0.253035223912
  11     -0.000000016141
  12      0.030376582480
  13     -0.013771298645
  14      0.000000053887
  15     -0.005553134234
  16      0.002543709932
  17      0.000000094281
  18     -0.000189547427
  19      0.000086165908
  20     -0.000000001598
  21     -0.000000022980
  22      0.000000080937
  23      0.000000011849
  24      0.000000257359
  25      0.000000067115
  26     -0.000180829360
  27      0.000080962497
  28     -0.000000070146
  29      0.001286966551
  30     -0.000591852125
  31      0.000000004630
  32     -0.000397978996
  33      0.000176271603
  34     -0.000000030194
  35      0.000000009254
  36     -0.000000000628
  37      0.000000043922
  38     -0.000000216174
  39      0.000000007648
  40      0.000011539698
  41     -0.000006371316
  42     -0.000000064876
  43     -0.000562159691
  44      0.000258174015
  45      0.000000001770
  46     -0.000169099257
  47      0.000076024685
  48      0.000000001322
  49      0.000000000465
 Ene=  -0.60141878027988E+01
 Spin= Alpha
 Occup=    0.420028
   1     -0.001086731013
   2      0.003957461304
   3     -0.001460550636
   4      0.000274364135
   5      0.007196940432
   6     -0.000000028012
   7     -0.000000008326
   8      0.395165532079
   9      0.000000362437
  10      0.000000141226
  11      0.022702763987
  12     -0.000000016075
  13      0.000000048198
  14     -0.003788893676
  15     -0.000000092038
  16     -0.000000013268
  17     -0.000898347826
  18      0.000000048513
  19     -0.000000001422
  20      0.000002215093
  21      0.000000002358
  22     -0.000088507015
  23      0.000235549234
  24     -0.003439581748
  25      0.000600443145
  26     -0.000000001443
  27     -0.000000003363
  28      0.002772613847
  29      0.000000043176
  30      0.000000004075
  31      0.001247043540
  32      0.000000005684
  33      0.000000002284
  34     -0.000001840294
  35     -0.000000000528
  36      0.000091378197
  37     -0.001026813157
  38      0.004344693001
  39     -0.000425919147
  40      0.000000011553
  41     -0.000000004823
  42      0.001347467399
  43     -0.000000037296
  44      0.000000033090
  45     -0.000211369775
  46     -0.000000000358
  47      0.000000001334
  48      0.000000220563
  49      0.000000001217
 Ene=  -0.59716678845677E+01
 Spin= Alpha
 Occup=    0.535280
   1     -0.000000112494
   2      0.000000353221
   3      0.000000161533
   4     -0.000000054712
   5     -0.000000001294
   6     -0.000564161069
   7     -0.001015778403
   8      0.000001579006
   9     -0.463060020217
  10     -0.145986610744
  11      0.000000075525
  12     -0.025200928911
  13     -0.007858958324
  14     -0.000000022754
  15      0.004460985416
  16      0.001412388236
  17      0.000000017893
  18      0.000166295012
  19      0.000051330262
  20     -0.000000000157
  21     -0.000000006672
  22      0.000000013643
  23      0.000000011600
  24      0.000000106823
  25      0.000000003517
  26      0.000144357890
  27      0.000045152927
  28     -0.000000095062
  29     -0.001025222504
  30     -0.000325239292
  31     -0.000000005077
  32      0.000322186628
  33      0.000098552186
  34     -0.000000005122
  35      0.000000002864
  36     -0.000000005298
  37      0.000000028671
  38     -0.000000152761
  39      0.000000005076
  40     -0.000007659197
  41     -0.000003439118
  42     -0.000000051535
  43      0.000447275835
  44      0.000141413619
  45     -0.000000002176
  46      0.000135832582
  47      0.000042066040
  48     -0.000000000149
  49      0.000000002112
 Ene=  -0.59667454830703E+01
 Spin= Alpha
 Occup=    0.577628
   1      0.001734531782
   2     -0.006319058435
   3      0.002308852650
   4     -0.000362222922
   5     -0.001173696392
   6     -0.000000003578
   7      0.000000005566
   8     -0.653926958987
   9     -0.000000632150
  10      0.000001937707
  11     -0.037031014595
  12     -0.000000046983
  13      0.000000112289
  14      0.005943623873
  15     -0.000000028540
  16     -0.000000021158
  17      0.001452181662
  18      0.000000024412
  19      0.000000002240
  20     -0.000003773346
  21     -0.000000007789
  22      0.000116455982
  23     -0.000346207118
  24      0.005393284561
  25     -0.000949195745
  26     -0.000000000085
  27     -0.000000001112
  28     -0.004439985931
  29      0.000000013937
  30      0.000000004504
  31     -0.001922227420
  32      0.000000003061
  33      0.000000000160
  34      0.000003054610
  35     -0.000000001852
  36     -0.000140629968
  37      0.001592957076
  38     -0.006884542963
  39      0.000649709093
  40      0.000000007340
  41     -0.000000003134
  42     -0.002131647676
  43     -0.000000014138
  44      0.000000010640
  45      0.000321302640
  46      0.000000000308
  47      0.000000000184
  48     -0.000000342771
  49      0.000000000225
 Ene=  -0.59630640234868E+01
 Spin= Alpha
 Occup=    0.761998
   1      0.000000099325
   2     -0.000000315766
   3     -0.000000137818
   4      0.000000036307
   5     -0.000000006806
   6     -0.000367541366
   7     -0.001786882276
   8      0.000000676044
   9      0.194104067332
  10     -0.425265319008
  11      0.000000045325
  12      0.010555828458
  13     -0.022809980125
  14      0.000000006985
  15     -0.001865297655
  16      0.004057427538
  17     -0.000000021379
  18     -0.000069518328
  19      0.000152405736
  20     -0.000000001823
  21      0.000000001871
  22     -0.000000011183
  23     -0.000000006267
  24     -0.000000089098
  25     -0.000000001632
  26     -0.000060867646
  27      0.000128079919
  28      0.000000097036
  29      0.000427294873
  30     -0.000934653516
  31      0.000000012042
  32     -0.000134926721
  33      0.000283295705
  34      0.000000004087
  35     -0.000000002946
  36      0.000000004230
  37     -0.000000030322
  38      0.000000142485
  39     -0.000000004716
  40      0.000003508543
  41     -0.000008565977
  42      0.000000044314
  43     -0.000186089991
  44      0.000407001787
  45     -0.000000000378
  46     -0.000056682798
  47      0.000121062519
  48      0.000000000072
  49      0.000000001774
 Ene=  -0.59570154986784E+01
 Spin= Alpha
 Occup=    0.002345
   1     -0.000113979033
   2      0.000415269268
   3     -0.000151396240
   4      0.000022746956
   5     -0.000066164503
   6      0.000000004403
   7      0.000000000932
   8      0.043288173464
   9      0.000000066454
  10     -0.000001850694
  11      0.002444254794
  12      0.000000006054
  13     -0.000000099880
  14     -0.000389100641
  15      0.000000003962
  16      0.000000017735
  17     -0.000095672180
  18     -0.000000003123
  19      0.000000000363
  20      0.000000118359
  21      0.000000059707
  22     -0.000007309300
  23      0.000022322717
  24     -0.000353045020
  25      0.000062235460
  26     -0.000000000159
  27      0.000000000271
  28      0.000291956359
  29     -0.000000002125
  30     -0.000000004026
  31      0.000125351648
  32     -0.000000000401
  33      0.000000000957
  34     -0.000000215556
  35      0.000000006082
  36      0.000009165787
  37     -0.000104028493
  38      0.000451686721
  39     -0.000042267427
  40     -0.000000001856
  41     -0.000000000602
  42      0.000139805421
  43      0.000000002410
  44      0.000000000389
  45     -0.000020886026
  46      0.000000000257
  47      0.000000000457
  48      0.000000018025
  49      0.000000001684
 Ene=  -0.96411216224968E+00
 Spin= Alpha
 Occup=    1.000000
   1     -0.000914700223
   2      0.005600469808
   3     -0.007692690328
   4     -0.003731928331
   5     -0.000080313497
   6      0.000000072131
   7     -0.000000103013
   8     -0.001343150479
   9     -0.000000075790
  10      0.000000112577
  11      0.002214853867
  12     -0.000000043727
  13      0.000000048983
  14      0.001978558236
  15     -0.000000008407
  16      0.000000016346
  17     -0.000812365192
  18      0.000000001765
  19     -0.000000002131
  20     -0.000183066307
  21     -0.000000086979
  22      0.011145924711
  23     -0.021728894966
  24     -0.003480613176
  25      0.009572058016
  26     -0.000000000656
  27      0.000000002490
  28      0.001914401556
  29      0.000000000449
  30     -0.000000003501
  31     -0.001531509141
  32     -0.000000001056
  33      0.000000000779
  34     -0.000039928253
  35      0.000000020979
  36      0.012835569106
  37     -0.025564833025
  38     -0.008492734875
  39     -0.010860621190
  40      0.000000006458
  41     -0.000000016125
  42     -0.001315006121
  43     -0.000000003213
  44      0.000000005493
  45     -0.000899251441
  46     -0.000000000092
  47     -0.000000001184
  48     -0.000224932145
  49     -0.000000590608
 Ene=  -0.94728280027910E+00
 Spin= Alpha
 Occup=    0.000000
   1     -0.000000000868
   2      0.000000005654
   3     -0.000000004004
   4     -0.000000014136
   5     -0.000000085791
   6      0.000241337150
   7     -0.000048134480
   8      0.000000087809
   9     -0.000242829320
  10      0.000049497470
  11      0.000000053893
  12     -0.000157774286
  13      0.000029413410
  14      0.000000019442
  15     -0.000059004527
  16      0.000010619249
  17      0.000000003369
  18      0.000007549185
  19     -0.000001437808
  20     -0.000000000226
  21     -0.000000003986
  22      0.000000005597
  23     -0.000000011711
  24      0.000000032613
  25     -0.000000014025
  26     -0.000055174076
  27      0.000011100173
  28     -0.000000009720
  29      0.000023774186
  30     -0.000004604492
  31      0.000000001554
  32      0.000000711818
  33     -0.000000179070
  34     -0.000000001398
  35      0.000000001327
  36     -0.000000002258
  37      0.000000006016
  38     -0.000000025504
  39      0.000000002965
  40      0.000125630048
  41     -0.000024226541
  42     -0.000000005715
  43     -0.000012471436
  44      0.000002661132
  45     -0.000000001248
  46      0.000005519322
  47     -0.000001043443
  48      0.000000000477
  49      0.000000016292
 Ene=  -0.84009627018371E+00
 Spin= Alpha
 Occup=    0.999999
   1     -0.018382640691
   2      0.113658717435
   3     -0.161595798756
   4     -0.064806147339
   5     -0.001217166220
   6      0.000000013896
   7      0.000000132806
   8     -0.016091653811
   9     -0.000000057253
  10     -0.000000028436
  11      0.028268437566
  12     -0.000000040279
  13     -0.000000309535
  14      0.016534994305
  15      0.000000091492
  16     -0.000000062825
  17     -0.007594197405
  18      0.000000008674
  19      0.000000003396
  20     -0.004052841197
  21      0.000001710453
  22      0.017147242231
  23     -0.036378509169
  24     -0.001184698244
  25     -0.069507127999
  26      0.000000029593
  27     -0.000000012044
  28     -0.013623847099
  29     -0.000000014473
  30     -0.000000021049
  31     -0.003141644912
  32     -0.000000003432
  33     -0.000000004486
  34     -0.000003867472
  35     -0.000000008679
  36     -0.024236323268
  37      0.050660337073
  38      0.012558546851
  39      0.016951997489
  40      0.000000175316
  41      0.000000001829
  42     -0.000611410611
  43      0.000000014786
  44      0.000000061423
  45      0.001321479069
  46      0.000000005390
  47      0.000000000544
  48      0.000423421515
  49     -0.000000342017
 Ene=  -0.81370267277274E+00
 Spin= Alpha
 Occup=    0.000001
   1      0.000000001502
   2     -0.000000010251
   3      0.000000028662
   4     -0.000000026905
   5     -0.000000121209
   6      0.000636309553
   7     -0.000027752347
   8      0.000000115515
   9     -0.000591409234
  10      0.000026667646
  11      0.000000086406
  12     -0.000497478524
  13      0.000020004386
  14      0.000000055268
  15     -0.000192619063
  16      0.000007285826
  17      0.000000009616
  18      0.000015920055
  19     -0.000000619227
  20      0.000000000291
  21     -0.000000011262
  22      0.000000016670
  23     -0.000000033494
  24      0.000000105476
  25     -0.000000007708
  26      0.000059480658
  27     -0.000002787363
  28     -0.000000026916
  29     -0.000025707467
  30      0.000001161382
  31     -0.000000004397
  32     -0.000011230853
  33      0.000000471248
  34     -0.000000003202
  35      0.000000002763
  36      0.000000006183
  37      0.000000000831
  38     -0.000000088980
  39     -0.000000004070
  40     -0.000049655034
  41      0.000002031842
  42     -0.000000034655
  43      0.000007756867
  44     -0.000000413203
  45     -0.000000001617
  46     -0.000004972842
  47      0.000000204972
  48      0.000000000110
  49     -0.000000006203
 Ene=  -0.51697725359830E+00
 Spin= Alpha
 Occup=    0.999967
   1     -0.023032648445
   2      0.146765655195
   3     -0.208109048984
   4     -0.209733327679
   5      0.010174779284
   6      0.000000083638
   7     -0.000000048117
   8      0.088311107278
   9     -0.000000079808
  10      0.000000294364
  11     -0.169332461028
  12     -0.000000183909
  13     -0.000000523009
  14     -0.135027394133
  15     -0.000000000386
  16     -0.000000279172
  17      0.031010073174
  18      0.000000039071
  19      0.000000031138
  20     -0.007978092359
  21     -0.000002288114
  22     -0.079394359076
  23      0.176697526399
  24      0.072574146804
  25      0.117478248889
  26      0.000000174599
  27     -0.000000034644
  28      0.082170086889
  29      0.000000055520
  30     -0.000000031562
  31      0.005630455905
  32     -0.000000030436
  33     -0.000000018352
  34      0.000028173371
  35     -0.000000055496
  36      0.044855253255
  37     -0.101601449863
  38     -0.027018529770
  39      0.035152576629
  40      0.000000558065
  41      0.000000086173
  42      0.035312196795
  43      0.000000144838
  44      0.000000169146
  45      0.002818107263
  46      0.000000023845
  47      0.000000003553
  48     -0.000848570264
  49     -0.000000040438
 Ene=  -0.50152847665361E+00
 Spin= Alpha
 Occup=    0.000082
   1     -0.000000000963
   2      0.000000004326
   3      0.000000031566
   4     -0.000000082646
   5     -0.000000035291
   6      0.001799950346
   7      0.000206326929
   8     -0.000000001993
   9     -0.000272763355
  10     -0.000086735193
  11      0.000000086276
  12     -0.003805027143
  13     -0.000336092280
  14      0.000000126729
  15     -0.003242046814
  16     -0.000263300179
  17      0.000000026932
  18      0.000291897192
  19      0.000023712643
  20     -0.000000001287
  21     -0.000000041986
  22      0.000000044291
  23     -0.000000100024
  24      0.000000321974
  25     -0.000000028012
  26     -0.001517554429
  27     -0.000116857142
  28     -0.000000112619
  29     -0.000700557274
  30     -0.000056318245
  31     -0.000000001091
  32     -0.000095450618
  33     -0.000009857011
  34     -0.000000007822
  35      0.000000009783
  36     -0.000000012141
  37      0.000000059926
  38     -0.000000246574
  39     -0.000000054608
  40     -0.000879497880
  41     -0.000054950449
  42     -0.000000125375
  43     -0.000414134422
  44     -0.000024239483
  45     -0.000000008552
  46     -0.000098742694
  47     -0.000007129415
  48      0.000000000624
  49      0.000000006712
 Ene=  -0.44051381643820E+00
 Spin= Alpha
 Occup=    0.999925
   1      0.000000128730
   2     -0.000000669380
   3      0.000000118062
   4      0.000001694594
   5     -0.000000316618
   6     -0.013520746396
   7      0.000034410072
   8     -0.000000006232
   9     -0.133920647656
  10      0.000031703774
  11      0.000000663227
  12      0.262234442576
  13     -0.000134979038
  14      0.000000496977
  15      0.291839285563
  16     -0.000131855532
  17     -0.000000103214
  18     -0.047702336018
  19      0.000019877597
  20      0.000000044727
  21      0.000000006157
  22     -0.000000002461
  23     -0.000000012265
  24     -0.000000429928
  25     -0.000000334976
  26      0.374308696873
  27     -0.000160600008
  28     -0.000000021479
  29      0.193944106076
  30     -0.000080119349
  31      0.000000003584
  32     -0.005892583887
  33      0.000000615152
  34      0.000000001845
  35      0.000000000406
  36      0.000000102265
  37     -0.000000279034
  38      0.000000000827
  39      0.000000439325
  40      0.347617614797
  41     -0.000134785561
  42      0.000000258914
  43      0.181854270858
  44     -0.000065706762
  45      0.000000020869
  46      0.027758349928
  47     -0.000010907493
  48      0.000000002484
  49      0.000000030225
 Ene=  -0.42188254984869E+00
 Spin= Alpha
 Occup=    0.999901
   1     -0.000000008900
   2      0.000000059710
   3     -0.000000054629
   4     -0.000000199300
   5     -0.000000000911
   6      0.001046874958
   7      0.000207061680
   8      0.000000109161
   9     -0.003717328155
  10      0.001776276973
  11     -0.000000194062
  12      0.003849017120
  13     -0.003485589920
  14     -0.000000108384
  15      0.005109487326
  16     -0.003867939680
  17      0.000000064011
  18     -0.001185799348