[Molden Format]
[Title]
generated by TRESC, real part1 of MOs of job SCN
 
[Atoms] AU
 S   1  16    0.0000000000    0.0000000000    1.9184736755
 C   2   6    0.0000000000    0.0000000000   -1.1567057569
 N   3   7    0.0000000000    0.0000000000   -3.3890492760
[GTO]
  1 0
 s  5 1.0
    10081.3659290000        0.0067330718
     1468.8676987000        0.0423201277
      327.2465016600        0.1866835343
       90.5285201140        0.4849802687
       27.5058308280        0.4517376429
 s  3 1.0
       46.3853988360       -0.0950589434
        5.0228188449        0.5843701906
        2.0306206045        0.5413909427
 s  1 1.0
        0.3606627882        1.0000000000
 s  1 1.0
        0.1371410729        1.0000000000
 p  5 1.0
      604.8788900300        0.0002353489
      140.0897861900        0.0017386166
       44.4994657800        0.0077865988
       16.4748871580        0.0220140918
        6.5229645048        0.0378945448
 p  5 1.0
      270.9504306400        0.0092081513
       62.5377853170        0.0653131413
       19.3546142200        0.2445470601
        6.7163477485        0.4820783852
        2.4098646724        0.3917477785
 p  1 1.0
        0.6191509478        1.0000000000
 p  1 1.0
        0.1701457548        1.0000000000
 d  1 1.0
        0.5500000000        1.0000000000
 
  2 0
 s  5 1.0
     1231.7975026000        0.0058423196
      185.5974766200        0.0415113222
       42.0875016200        0.1832849990
       11.6300369400        0.4683526005
        3.5840894779        0.4430601820
 s  1 1.0
        0.4029351893        1.0000000000
 s  1 1.0
        0.1309419451        1.0000000000
 p  3 1.0
        9.4821246358        0.0381720490
        2.0121097169        0.2099973699
        0.5481253660        0.5104097902
 p  1 1.0
        0.1527756940        1.0000000000
 d  1 1.0
        0.8000000000        1.0000000000
 
  3 0
 s  5 1.0
     1706.0150550000        0.0058639453
      255.9938356800        0.0413450288
       58.1565771970        0.1820914202
       16.1430707430        0.4678591214
        4.9963209539        0.4434151324
 s  1 1.0
        0.5882550288        1.0000000000
 s  1 1.0
        0.1877013255        1.0000000000
 p  3 1.0
       13.5897862110        0.0400190920
        2.9274822154        0.2175789499
        0.7994670210        0.5117738303
 p  1 1.0
        0.2195247995        1.0000000000
 d  1 1.0
        1.0000000000        1.0000000000
 
[5D]
[7F]
[9G]
[MO]
 Ene=  -0.89352744742330E+02
 Spin= Alpha
 Occup=    1.000000
   1     -0.151819018251
   2     -0.003420755841
   3      0.001493615074
   4     -0.000477408887
   5     -0.000093755481
   6      0.000000001223
   7      0.000000000695
   8      0.000130553179
   9     -0.000000002187
  10     -0.000000000422
  11     -0.000131086509
  12      0.000000000580
  13      0.000000002681
  14     -0.000096167383
  15     -0.000000000411
  16     -0.000000000901
  17      0.000068455651
  18     -0.000000000009
  19      0.000000000039
  20      0.000000073320
  21      0.000000043268
  22      0.000019266161
  23      0.000035634926
  24      0.000556162448
  25     -0.000056507754
  26      0.000000000024
  27     -0.000000000006
  28     -0.000779053560
  29     -0.000000000036
  30      0.000000000285
  31     -0.000153615162
  32     -0.000000000105
  33     -0.000000000065
  34     -0.000000002882
  35     -0.000000005151
  36     -0.000017791180
  37      0.000207797676
  38     -0.001049376689
  39      0.000068184223
  40     -0.000000001560
  41      0.000000000183
  42     -0.000345337073
  43      0.000000000672
  44     -0.000000000471
  45      0.000016395722
  46     -0.000000000061
  47     -0.000000000011
  48     -0.000000002218
  49     -0.000000013293
 Ene=  -0.89347885088283E+02
 Spin= Alpha
 Occup=    0.000000
   1      0.000000000280
   2      0.000000000000
   3      0.000000000046
   4      0.000000000057
   5     -0.000000000671
   6      0.000000501112
   7     -0.000000037842
   8      0.000000001306
   9     -0.000000415846
  10      0.000000031438
  11     -0.000000000266
  12      0.000000074609
  13     -0.000000005604
  14      0.000000000045
  15     -0.000000024863
  16      0.000000001879
  17      0.000000000055
  18     -0.000000011400
  19      0.000000000786
  20     -0.000000000006
  21     -0.000000000003
  22      0.000000000014
  23     -0.000000000059
  24      0.000000000149
  25      0.000000000053
  26      0.000000003109
  27     -0.000000000244
  28     -0.000000000195
  29      0.000000005856
  30     -0.000000000445
  31     -0.000000000128
  32     -0.000000017774
  33      0.000000001364
  34     -0.000000000003
  35      0.000000000003
  36     -0.000000000021
  37      0.000000000124
  38     -0.000000000264
  39      0.000000000209
  40     -0.000000003830
  41      0.000000000290
  42     -0.000000000133
  43     -0.000000003930
  44      0.000000000301
  45      0.000000000045
  46     -0.000000000474
  47      0.000000000039
  48      0.000000000004
  49     -0.000000000001
 Ene=  -0.14446232748584E+02
 Spin= Alpha
 Occup=    1.000000
   1      0.000050187209
   2     -0.000431550042
   3      0.002043124653
   4      0.011188372908
   5     -0.000757450562
   6      0.000000003681
   7      0.000000008820
   8      0.000952181471
   9     -0.000000004354
  10     -0.000000008633
  11     -0.001108813623
  12     -0.000000000511
  13      0.000000005775
  14     -0.006383956172
  15      0.000000000519
  16     -0.000000001825
  17      0.000937780519
  18     -0.000000001392
  19      0.000000000043
  20      0.000000078601
  21      0.000000005166
  22      0.000311108404
  23      0.001890971113
  24      0.019239443200
  25      0.003274243189
  26     -0.000000000140
  27      0.000000000134
  28     -0.029736832877
  29     -0.000000001221
  30      0.000000000388
  31     -0.002692720676
  32      0.000000000173
  33     -0.000000000262
  34     -0.000007168537
  35     -0.000000002862
  36      0.983320339348
  37      0.044035405912
  38     -0.052935375356
  39      0.004915444376
  40     -0.000000002956
  41      0.000000000395
  42     -0.014523358517
  43      0.000000003719
  44     -0.000000001937
  45      0.001153596079
  46      0.000000000054
  47     -0.000000000111
  48      0.000115996555
  49     -0.000000039173
 Ene=  -0.14437651803862E+02
 Spin= Alpha
 Occup=    0.000000
   1     -0.000000000010
   2      0.000000000009
   3      0.000000000178
   4      0.000000000120
   5     -0.000000008073
   6      0.000000032725
   7     -0.000000308984
   8      0.000000004565
   9     -0.000000016029
  10      0.000000150908
  11     -0.000000000795
  12      0.000000004146
  13     -0.000000038987
  14      0.000000000152
  15     -0.000000006366
  16      0.000000058840
  17      0.000000000191
  18      0.000000002937
  19     -0.000000028975
  20      0.000000000008
  21      0.000000000004
  22     -0.000000000075
  23     -0.000000000159
  24      0.000000000403
  25      0.000000000117
  26     -0.000000011785
  27      0.000000115932
  28     -0.000000000529
  29      0.000000015048
  30     -0.000000137866
  31     -0.000000000366
  32     -0.000000012470
  33      0.000000109711
  34      0.000000000003
  35     -0.000000000003
  36     -0.000000000122
  37      0.000000000349
  38     -0.000000000737
  39      0.000000000572
  40      0.000000046910
  41     -0.000000440118
  42     -0.000000000363
  43     -0.000000024844
  44      0.000000227949
  45      0.000000000115
  46      0.000000012665
  47     -0.000000169210
  48      0.000000000001
  49     -0.000000000000
 Ene=  -0.10328174368928E+02
 Spin= Alpha
 Occup=    0.000000
   1     -0.000000000107
   2      0.000000000229
   3      0.000000001011
   4     -0.000000000974
   5     -0.000000065226
   6      0.000000014269
   7      0.000001051016
   8      0.000000009611
   9     -0.000000001575
  10     -0.000000116915
  11     -0.000000007076
  12      0.000000001410
  13      0.000000104663
  14      0.000000002975
  15     -0.000000000515
  16     -0.000000037269
  17      0.000000000264
  18      0.000000000454
  19      0.000000034267
  20     -0.000000000002
  21     -0.000000000016
  22      0.000000000104
  23     -0.000000000058
  24      0.000000002302
  25     -0.000000000741
  26     -0.000000000580
  27     -0.000000048116
  28     -0.000000000929
  29      0.000000000643
  30      0.000000048992
  31     -0.000000000789
  32     -0.000000004745
  33     -0.000000327040
  34      0.000000000000
  35     -0.000000000000
  36     -0.000000000155
  37      0.000000000463
  38     -0.000000002128
  39     -0.000000000906
  40     -0.000000001092
  41     -0.000000082117
  42     -0.000000000303
  43      0.000000000135
  44      0.000000009979
  45      0.000000000062
  46      0.000000002931
  47      0.000000216381
  48      0.000000000041
  49      0.000000000027
 Ene=  -0.10325041820673E+02
 Spin= Alpha
 Occup=    1.000000
   1      0.000073914942
   2     -0.000597912459
   3      0.001435047721
   4     -0.019246731563
   5     -0.001920494566
   6      0.000000085191
   7     -0.000000041196
   8      0.002430521528
   9     -0.000000033980
  10      0.000000031523
  11     -0.002289076536
  12      0.000000011706
  13     -0.000000007562
  14      0.009635255788
  15     -0.000000004585
  16      0.000000003647
  17      0.001834754847
  18      0.000000000117
  19     -0.000000000174
  20     -0.000000617764
  21      0.000000017190
  22     -0.851017965723
  23     -0.041447136299
  24      0.003523644830
  25      0.001112183848
  26      0.000000000704
  27     -0.000000000269
  28      0.032262935209
  29      0.000000001069
  30     -0.000000001001
  31     -0.003615580547
  32     -0.000000000340
  33      0.000000000162
  34      0.000016684249
  35      0.000000024498
  36      0.000469282757
  37     -0.000618383429
  38      0.034650183604
  39      0.001749322653
  40      0.000000001327
  41      0.000000000873
  42      0.014355846816
  43     -0.000000001179
  44      0.000000000086
  45      0.001020348324
  46     -0.000000000778
  47      0.000000000019
  48     -0.000002760306
  49     -0.000000029223
 Ene=  -0.80944640611692E+01
 Spin= Alpha
 Occup=    1.000000
   1      0.033432261203
   2     -0.110847537776
   3     -0.005327051270
   4      0.001272594124
   5     -0.000001960264
   6      0.000000045892
   7     -0.000000012597
   8      0.000819363760
   9     -0.000000140318
  10      0.000000015158
  11      0.000250000034
  12      0.000000005565
  13      0.000000044710
  14      0.000242489559
  15     -0.000000016287
  16     -0.000000015473
  17     -0.000140828540
  18     -0.000000003336
  19      0.000000000843
  20     -0.000049794552
  21     -0.000000229559
  22     -0.000008284234
  23     -0.000079531496
  24     -0.001064232636
  25      0.000145384180
  26     -0.000000000005
  27     -0.000000000012
  28      0.001548959163
  29      0.000000001527
  30      0.000000008934
  31      0.000170908280
  32     -0.000000001156
  33     -0.000000001861
  34      0.000001393992
  35      0.000000024496
  36      0.000024909860
  37     -0.000309397241
  38      0.002006076828
  39     -0.000068156565
  40     -0.000000030121
  41      0.000000000747
  42      0.000646988322
  43      0.000000011724
  44     -0.000000015388
  45     -0.000004051140
  46     -0.000000000500
  47     -0.000000000986
  48     -0.000000104931
  49      0.000000048436
 Ene=  -0.80898166212491E+01
 Spin= Alpha
 Occup=    0.000000
   1      0.000000000547
   2     -0.000000001768
   3     -0.000000000272
   4     -0.000000000343
   5     -0.000000019053
   6     -0.000037740233
   7     -0.000003275449
   8     -0.000000005353
   9     -0.000022768204
  10     -0.000001943407
  11     -0.000000001896
  12     -0.000004100243
  13     -0.000000352209
  14      0.000000000897
  15      0.000001468982
  16      0.000000126830
  17     -0.000000000247
  18      0.000000028282
  19     -0.000000002306
  20     -0.000000000061
  21      0.000000000197
  22     -0.000000000584
  23      0.000000000296
  24     -0.000000001752
  25     -0.000000000802
  26      0.000000003432
  27      0.000000000121
  28      0.000000001456
  29     -0.000000370295
  30     -0.000000032730
  31      0.000000000503
  32      0.000000190947
  33      0.000000015883
  34      0.000000000087
  35     -0.000000000103
  36      0.000000000047
  37     -0.000000001072
  38      0.000000002472
  39     -0.000000002670
  40      0.000000029336
  41      0.000000002537
  42      0.000000001666
  43      0.000000168916
  44      0.000000014891
  45     -0.000000000300
  46      0.000000046499
  47      0.000000003567
  48     -0.000000000069
  49      0.000000000009
 Ene=  -0.60195011079135E+01
 Spin= Alpha
 Occup=    0.702722
   1      0.000000056989
   2     -0.000000179791
   3     -0.000000064846
   4      0.000000063584
   5      0.000000018790
   6      0.006064649762
   7      0.009720468689
   8      0.000000931899
   9      0.341957942061
  10      0.408092460850
  11      0.000000057857
  12      0.018835643653
  13      0.022210136120
  14     -0.000000012577
  15     -0.003443335618
  16     -0.004102227086
  17     -0.000000032192
  18     -0.000117532958
  19     -0.000138978429
  20      0.000000001953
  21     -0.000000074859
  22     -0.000000041614
  23      0.000000011437
  24      0.000000239303
  25     -0.000000091433
  26     -0.000112124686
  27     -0.000130573990
  28     -0.000000113048
  29      0.000798003994
  30      0.000954460591
  31      0.000000023285
  32     -0.000246778112
  33     -0.000284293302
  34      0.000000008717
  35      0.000000028277
  36     -0.000000019840
  37      0.000000049700
  38     -0.000000254103
  39     -0.000000002555
  40      0.000007160511
  41      0.000010234070
  42     -0.000000129127
  43     -0.000348578316
  44     -0.000416334330
  45     -0.000000021271
  46     -0.000104874074
  47     -0.000122578701
  48      0.000000000076
  49      0.000000002415
 Ene=  -0.60141878027988E+01
 Spin= Alpha
 Occup=    0.420028
   1      0.001330112090
   2     -0.004843763057
   3      0.001787653332
   4     -0.000335810685
   5     -0.008808761049
   6      0.000000048244
   7     -0.000000010461
   8     -0.483666330237
   9      0.000000149557
  10     -0.000001014062
  11     -0.027787248313
  12      0.000000053742
  13     -0.000000105264
  14      0.004637449725
  15      0.000000106258
  16      0.000000024684
  17      0.001099541815
  18     -0.000000059890
  19      0.000000002447
  20     -0.000002711354
  21      0.000000001285
  22      0.000108329139
  23     -0.000288303465
  24      0.004209907370
  25     -0.000734917594
  26      0.000000001005
  27      0.000000004229
  28     -0.003393564789
  29     -0.000000051292
  30     -0.000000006555
  31     -0.001526330791
  32     -0.000000007560
  33     -0.000000001796
  34      0.000002252485
  35      0.000000000617
  36     -0.000111843190
  37      0.001256777964
  38     -0.005317726056
  39      0.000521310157
  40     -0.000000015272
  41      0.000000008293
  42     -0.001649245623
  43      0.000000045471
  44     -0.000000040678
  45      0.000258708298
  46      0.000000000318
  47     -0.000000000892
  48     -0.000000270218
  49      0.000000000641
 Ene=  -0.59716678845677E+01
 Spin= Alpha
 Occup=    0.535280
   1     -0.000000155494
   2      0.000000491326
   3      0.000000212650
   4     -0.000000058286
   5      0.000000000624
   6     -0.000621276752
   7      0.000922439507
   8      0.000000996664
   9     -0.509904088940
  10      0.132552035846
  11      0.000000043544
  12     -0.027750299898
  13      0.007135691432
  14     -0.000000027174
  15      0.004912268100
  16     -0.001282362522
  17      0.000000016655
  18      0.000183116923
  19     -0.000046608673
  20      0.000000001129
  21     -0.000000010821
  22      0.000000007266
  23      0.000000013832
  24      0.000000140272
  25     -0.000000010095
  26      0.000158961487
  27     -0.000040997634
  28     -0.000000136662
  29     -0.001128936757
  30      0.000295293608
  31     -0.000000008503
  32      0.000354778866
  33     -0.000089482137
  34     -0.000000003361
  35      0.000000005837
  36     -0.000000008602
  37      0.000000041284
  38     -0.000000211487
  39      0.000000005123
  40     -0.000008438346
  41      0.000003113729
  42     -0.000000073890
  43      0.000492525032
  44     -0.000128382076
  45     -0.000000003934
  46      0.000149571650
  47     -0.000038187759
  48     -0.000000000035
  49      0.000000001149
 Ene=  -0.59667454830703E+01
 Spin= Alpha
 Occup=    0.577628
   1     -0.000939404809
   2      0.003422338168
   3     -0.001250452605
   4      0.000196177452
   5      0.000635661461
   6      0.000000006233
   7     -0.000000009250
   8      0.354160806826
   9      0.000000052562
  10     -0.000002973125
  11      0.020055655042
  12      0.000000010060
  13     -0.000000163171
  14     -0.003219011935
  15      0.000000018073
  16      0.000000029868
  17     -0.000786488750
  18     -0.000000013218
  19     -0.000000000979
  20      0.000002043732
  21     -0.000000014166
  22     -0.000063071504
  23      0.000187502737
  24     -0.002920952867
  25      0.000514076106
  26     -0.000000000097
  27      0.000000001318
  28      0.002404653633
  29     -0.000000008197
  30     -0.000000007324
  31      0.001041060236
  32     -0.000000001548
  33      0.000000001001
  34     -0.000001654392
  35     -0.000000003839
  36      0.000076163897
  37     -0.000862730575
  38      0.003728603521
  39     -0.000351875141
  40     -0.000000004784
  41     -0.000000001450
  42      0.001154479970
  43      0.000000008301
  44     -0.000000002463
  45     -0.000174014330
  46     -0.000000000040
  47      0.000000000623
  48      0.000000185972
  49     -0.000000004870
 Ene=  -0.59630640234868E+01
 Spin= Alpha
 Occup=    0.761998
   1      0.000000057648
   2     -0.000000193880
   3     -0.000000033691
   4      0.000000005199
   5     -0.000000023899
   6      0.000222043983
   7     -0.002959155804
   8     -0.000002555883
   9     -0.117181843550
  10     -0.704272424162
  11     -0.000000148157
  12     -0.006372644140
  13     -0.037775125132
  14      0.000000033110
  15      0.001126095618
  16      0.006719451596
  17      0.000000000367
  18      0.000041968967
  19      0.000252393464
  20     -0.000000003507
  21     -0.000000010976
  22     -0.000000004083
  23     -0.000000000872
  24      0.000000043351
  25     -0.000000011941
  26      0.000036746877
  27      0.000212110149
  28     -0.000000002485
  29     -0.000257961729
  30     -0.001547869377
  31     -0.000000002591
  32      0.000081457565
  33      0.000469160354
  34      0.000000000900
  35      0.000000001152
  36     -0.000000001924
  37      0.000000003733
  38     -0.000000026781
  39      0.000000008209
  40     -0.000002099884
  41     -0.000014187502
  42     -0.000000017501
  43      0.000112337551
  44      0.000674035919
  45     -0.000000001068
  46      0.000034217841
  47      0.000200494340
  48     -0.000000000261
  49      0.000000004664
 Ene=  -0.59570154986784E+01
 Spin= Alpha
 Occup=    0.002345
   1     -0.000051669579
   2      0.000188252087
   3     -0.000068631830
   4      0.000010310921
   5     -0.000029991831
   6     -0.000000005438
   7      0.000000004100
   8      0.019623577360
   9      0.000000468527
  10      0.000000312873
  11      0.001108040442
  12      0.000000025430
  13      0.000000016563
  14     -0.000176388318
  15     -0.000000001997
  16     -0.000000002823
  17     -0.000043370802
  18     -0.000000001423
  19     -0.000000000532
  20      0.000000053658
  21     -0.000000131730
  22     -0.000003313646
  23      0.000010120092
  24     -0.000160044722
  25      0.000028211803
  26      0.000000000275
  27     -0.000000000208
  28      0.000132352618
  29     -0.000000000125
  30      0.000000000520
  31      0.000056826187
  32     -0.000000000285
  33     -0.000000000342
  34     -0.000000097716
  35     -0.000000013421
  36      0.000004155163
  37     -0.000047159973
  38      0.000204762610
  39     -0.000019164715
  40      0.000000000390
  41     -0.000000000631
  42      0.000063378836
  43      0.000000000192
  44     -0.000000000700
  45     -0.000009468705
  46      0.000000000040
  47     -0.000000000015
  48      0.000000008136
  49     -0.000000004153
 Ene=  -0.96411216224968E+00
 Spin= Alpha
 Occup=    1.000000
   1      0.016203585031
   2     -0.099210308166
   3      0.136273372386
   4      0.066110021861
   5      0.001422696252
   6      0.000000159925
   7      0.000000103267
   8      0.023793528728
   9     -0.000000110205
  10     -0.000000202164
  11     -0.039235548224
  12     -0.000000061250
  13      0.000000199341
  14     -0.035049516683
  15     -0.000000101893
  16      0.000000002261
  17      0.014390766136
  18     -0.000000016305
  19      0.000000002565
  20      0.003243144846
  21      0.000000180907
  22     -0.197445949912
  23      0.384919478619
  24      0.061658968719
  25     -0.169565122346
  26     -0.000000034552
  27      0.000000012111
  28     -0.033914300183
  29      0.000000001877
  30      0.000000024172
  31      0.027130196703
  32      0.000000003413
  33     -0.000000000156
  34      0.000707333022
  35      0.000000044906
  36     -0.227376913489
  37      0.452870709255
  38      0.150443406113
  39      0.192392038495
  40     -0.000000167073
  41     -0.000000024456
  42      0.023294595876
  43      0.000000046724
  44     -0.000000063293
  45      0.015930015234
  46     -0.000000001878
  47      0.000000000918
  48      0.003984880316
  49      0.000000136129
 Ene=  -0.94728280027910E+00
 Spin= Alpha
 Occup=    0.000000
   1     -0.000000007590
   2      0.000000046881
   3     -0.000000070140
   4     -0.000000006978
   5     -0.000000094169
   6      0.000048167579
   7      0.000241161981
   8      0.000000083480
   9     -0.000048465072
  10     -0.000247961427
  11      0.000000073372
  12     -0.000031489937
  13     -0.000147456697
  14      0.000000020820
  15     -0.000011777424
  16     -0.000053147531
  17     -0.000000014219
  18      0.000001506832
  19      0.000007202790
  20     -0.000000001317
  21     -0.000000002014
  22      0.000000022927
  23     -0.000000048288
  24      0.000000005874
  25     -0.000000047829
  26     -0.000011011859
  27     -0.000055615038
  28     -0.000000023288
  29      0.000004745397
  30      0.000023054107
  31     -0.000000002756
  32      0.000000141725
  33      0.000000894327
  34      0.000000000810
  35      0.000000001407
  36     -0.000000003875
  37      0.000000009328
  38     -0.000000020487
  39      0.000000005544
  40      0.000025077335
  41      0.000121377286
  42     -0.000000009574
  43     -0.000002488829
  44     -0.000013322321
  45     -0.000000000563
  46      0.000001100140
  47      0.000005228401
  48      0.000000000158
  49      0.000000004245
 Ene=  -0.84009627018371E+00
 Spin= Alpha
 Occup=    0.999999
   1     -0.068257167234
   2      0.422029797346
   3     -0.600026510424
   4     -0.240634081544
   5     -0.004519503994
   6     -0.000000338835
   7      0.000000056893
   8     -0.059750367749
   9      0.000000144126
  10      0.000000319687
  11      0.104964308848
  12      0.000000140777
  13     -0.000000836541
  14      0.061396777384
  15      0.000000455407
  16     -0.000000131629
  17     -0.028198261379
  18      0.000000019285
  19      0.000000001842
  20     -0.015048580163
  21     -0.000001388009
  22      0.063669950837
  23     -0.135078233228
  24     -0.004399135743
  25     -0.258089095619
  26      0.000000125669
  27     -0.000000025233
  28     -0.050586526886
  29     -0.000000058951
  30     -0.000000080313
  31     -0.011665326253
  32     -0.000000008260
  33     -0.000000012191
  34     -0.000014357714
  35      0.000000006122
  36     -0.089992708905
  37      0.188108569065
  38      0.046632217987
  39      0.062944975341
  40      0.000000630789
  41      0.000000047560
  42     -0.002270027394
  43      0.000000059231
  44      0.000000230908
  45      0.004906822665
  46      0.000000020629
  47      0.000000003941
  48      0.001572193758
  49      0.000000325385
 Ene=  -0.81370267277274E+00
 Spin= Alpha
 Occup=    0.000001
   1     -0.000000005623
   2      0.000000035821
   3     -0.000000063752
   4      0.000000026330
   5      0.000000109150
   6      0.000027771849
   7      0.000635791654
   8     -0.000000113084
   9     -0.000025811456
  10     -0.000611153979
  11     -0.000000056723
  12     -0.000021714550
  13     -0.000458130810
  14     -0.000000039341
  15     -0.000008406848
  16     -0.000165975447
  17     -0.000000014823
  18      0.000000694795
  19      0.000014161122
  20     -0.000000000959
  21     -0.000000011708
  22      0.000000023398
  23     -0.000000048748
  24     -0.000000005876
  25     -0.000000002922
  26      0.000002596427
  27      0.000063945013
  28     -0.000000039828
  29     -0.000001123996
  30     -0.000026747171
  31     -0.000000001259
  32     -0.000000490074
  33     -0.000010784086
  34      0.000000003068
  35      0.000000002695
  36      0.000000022731
  37     -0.000000043315
  38     -0.000000058906
  39     -0.000000013353
  40     -0.000002160282
  41     -0.000046708546
  42     -0.000000024342
  43      0.000000339861
  44      0.000009496746
  45     -0.000000003307
  46     -0.000000218536
  47     -0.000004639294
  48     -0.000000000554
  49      0.000000001133
 Ene=  -0.51697725359830E+00
 Spin= Alpha
 Occup=    0.999967
   1      0.036242577093
   2     -0.230940250609
   3      0.327465945466
   4      0.330022100533
   5     -0.016010327248
   6      0.000000154583
   7      0.000000190654
   8     -0.138960224706
   9      0.000000033655
  10     -0.000000517406
  11      0.266449794111
  12     -0.000000225168
  13      0.000000623565
  14      0.212469561152
  15     -0.000000401092
  16      0.000000300262
  17     -0.048795321888
  18     -0.000000023729
  19     -0.000000036483
  20      0.012553900330
  21     -0.000000443247
  22      0.124929481786
  23     -0.278038975223
  24     -0.114197724317
  25     -0.184855663527
  26     -0.000000456536
  27      0.000000020914
  28     -0.129297516581
  29     -0.000000160821
  30      0.000000037787
  31     -0.008859704860
  32      0.000000034020
  33      0.000000020885
  34     -0.000044332173
  35     -0.000000043390
  36     -0.070581107220
  37      0.159872986699
  38      0.042514206034
  39     -0.055313657967
  40     -0.000000961513
  41     -0.000000084287
  42     -0.055564932594
  43     -0.000000271524
  44     -0.000000257088
  45     -0.004434384121
  46     -0.000000048321
  47     -0.000000003951
  48      0.001335260351
  49     -0.000000052384
 Ene=  -0.50152847665361E+00
 Spin= Alpha
 Occup=    0.000082
   1      0.000000000911
   2     -0.000000001953
   3     -0.000000056720
   4      0.000000230127
   5      0.000000143820
   6     -0.000209429297
   7      0.001773408667
   8     -0.000000117942
   9      0.000031749158
  10     -0.000745142574
  11     -0.000000126395
  12      0.000442701547
  13     -0.002889057127
  14     -0.000000185593
  15      0.000377198345
  16     -0.002264734960
  17     -0.000000056255
  18     -0.000033962549
  19      0.000203884867
  20      0.000000002029
  21     -0.000000028203
  22      0.000000014115
  23     -0.000000035113
  24     -0.000000070341
  25     -0.000000030396
  26      0.000176576531
  27     -0.001004786195
  28     -0.000000160665
  29      0.000081508216
  30     -0.000484056630
  31      0.000000005695
  32      0.000011104025
  33     -0.000084746308
  34      0.000000010421
  35      0.000000006484
  36      0.000000021972
  37     -0.000000044009
  38     -0.000000140251
  39     -0.000000002226
  40      0.000102370626
  41     -0.000472227311
  42     -0.000000058116
  43      0.000048200500
  44     -0.000208396693
  45     -0.000000005020
  46      0.000011483888
  47     -0.000061338867
  48     -0.000000000340
  49      0.000000003386
 Ene=  -0.44051381643820E+00
 Spin= Alpha
 Occup=    0.999925
   1      0.000000013042
   2     -0.000000085378
   3      0.000000169432
   4     -0.000000059111
   5     -0.000000011506
   6     -0.000252327808
   7     -0.001863426658
   8     -0.000000061449
   9     -0.002499715067
  10     -0.001897345318
  11      0.000000120620
  12      0.004894676647
  13      0.007621785162
  14      0.000000218543
  15      0.005447264437
  16      0.007494293074
  17      0.000000026812
  18     -0.000890364228
  19     -0.001136411499
  20      0.000000003665
  21      0.000000039313
  22      0.000000064824
  23     -0.000000140698
  24     -0.000000071356
  25      0.000000017944
  26      0.006986531426
  27      0.009165288234
  28      0.000000108138
  29      0.003619999804
  30      0.004583885783
  31     -0.000000004747
  32     -0.000109989981
  33     -0.000042035171
  34     -0.000000008922
  35     -0.000000006363
  36     -0.000000084112
  37      0.000000174574
  38      0.000000292690
  39     -0.000000133557
  40      0.006488338380
  41      0.007745100296
  42     -0.000000014399
  43      0.003394343348
  44      0.003794292101
  45     -0.000000004801
  46      0.000518114462
  47      0.000625891853
  48     -0.000000007940
  49     -0.000000006226
 Ene=  -0.42188254984869E+00
 Spin= Alpha
 Occup=    0.999901
   1      0.000000041889
   2     -0.000000208519
   3     -0.000000146599
   4      0.000000833292
   5     -0.000000164331
   6     -0.000016716504
   7      0.013316327037
   8      0.000000026787
   9      0.000054633442
  10      0.114292295931
  11      0.000000291873
  12     -0.000053490736
  13     -0.224258050471
  14      0.000000198728
  15     -0.000072411645
  16     -0.248869768858
  17     -0.000000063062
  18      0.000017096156