[Molden Format]
[Title]
generated by TRESC, imaginary part2 of MOs of job SCN
 
[Atoms] AU
 S   1  16    0.0000000000    0.0000000000    1.9184736755
 C   2   6    0.0000000000    0.0000000000   -1.1567057569
 N   3   7    0.0000000000    0.0000000000   -3.3890492760
[GTO]
  1 0
 s  5 1.0
    10081.3659290000        0.0067330718
     1468.8676987000        0.0423201277
      327.2465016600        0.1866835343
       90.5285201140        0.4849802687
       27.5058308280        0.4517376429
 s  3 1.0
       46.3853988360       -0.0950589434
        5.0228188449        0.5843701906
        2.0306206045        0.5413909427
 s  1 1.0
        0.3606627882        1.0000000000
 s  1 1.0
        0.1371410729        1.0000000000
 p  5 1.0
      604.8788900300        0.0002353489
      140.0897861900        0.0017386166
       44.4994657800        0.0077865988
       16.4748871580        0.0220140918
        6.5229645048        0.0378945448
 p  5 1.0
      270.9504306400        0.0092081513
       62.5377853170        0.0653131413
       19.3546142200        0.2445470601
        6.7163477485        0.4820783852
        2.4098646724        0.3917477785
 p  1 1.0
        0.6191509478        1.0000000000
 p  1 1.0
        0.1701457548        1.0000000000
 d  1 1.0
        0.5500000000        1.0000000000
 
  2 0
 s  5 1.0
     1231.7975026000        0.0058423196
      185.5974766200        0.0415113222
       42.0875016200        0.1832849990
       11.6300369400        0.4683526005
        3.5840894779        0.4430601820
 s  1 1.0
        0.4029351893        1.0000000000
 s  1 1.0
        0.1309419451        1.0000000000
 p  3 1.0
        9.4821246358        0.0381720490
        2.0121097169        0.2099973699
        0.5481253660        0.5104097902
 p  1 1.0
        0.1527756940        1.0000000000
 d  1 1.0
        0.8000000000        1.0000000000
 
  3 0
 s  5 1.0
     1706.0150550000        0.0058639453
      255.9938356800        0.0413450288
       58.1565771970        0.1820914202
       16.1430707430        0.4678591214
        4.9963209539        0.4434151324
 s  1 1.0
        0.5882550288        1.0000000000
 s  1 1.0
        0.1877013255        1.0000000000
 p  3 1.0
       13.5897862110        0.0400190920
        2.9274822154        0.2175789499
        0.7994670210        0.5117738303
 p  1 1.0
        0.2195247995        1.0000000000
 d  1 1.0
        1.0000000000        1.0000000000
 
[5D]
[7F]
[9G]
[MO]
 Ene=   0.62067029056516E+00
 Spin= Alpha
 Occup=    0.000000
   1     -0.000000004895
   2      0.000000036901
   3     -0.000000024326
   4     -0.000003299791
   5      0.000000017569
   6      0.002852624312
   7      0.000054944864
   8     -0.000000094850
   9     -0.007271553692
  10     -0.000376367648
  11      0.000000305842
  12      0.012882968863
  13      0.001091478256
  14      0.000001560364
  15     -0.007042854806
  16     -0.000898101845
  17     -0.000000115977
  18     -0.022581462904
  19     -0.001096596667
  20      0.000000255952
  21      0.000002981560
  22      0.000000125074
  23     -0.000001160504
  24      0.000000838630
  25     -0.000000361814
  26     -0.000873243082
  27     -0.000153537568
  28      0.000004868712
  29     -0.008366350777
  30     -0.000128885479
  31     -0.000000081673
  32      0.003044187618
  33      0.000169017397
  34     -0.000000005052
  35      0.000000179354
  36     -0.000000187635
  37      0.000000852814
  38      0.000002696467
  39     -0.000000364499
  40      0.008185519827
  41      0.000309733138
  42      0.000001353631
  43     -0.001923585797
  44     -0.000069770337
  45      0.000000045551
  46     -0.000393040176
  47     -0.000022037466
  48      0.000000005028
  49     -0.000000017523
 Ene=   0.62808672993442E+00
 Spin= Alpha
 Occup=    0.000000
   1      0.000021978313
   2     -0.000161469172
   3      0.000884751435
   4     -0.006976257795
   5      0.000354046240
   6     -0.000000077428
   7     -0.000000055823
   8     -0.000704892329
   9      0.000000123564
  10      0.000000290008
  11      0.000938967639
  12     -0.000000114389
  13     -0.000000768930
  14      0.002962044098
  15     -0.000000010582
  16      0.000000592642
  17     -0.000784233031
  18      0.000000429249
  19      0.000000925905
  20     -0.000626859668
  21     -0.000800698640
  22     -0.000324470495
  23      0.000993117139
  24      0.001356379847
  25     -0.001822588473
  26     -0.000000034656
  27      0.000000117181
  28      0.008953512361
  29      0.000000285534
  30      0.000000152259
  31     -0.000357209039
  32     -0.000000052763
  33     -0.000000135140
  34     -0.000036229453
  35     -0.000047448323
  36      0.000145226206
  37     -0.000456723313
  38      0.005285729469
  39     -0.000700335033
  40     -0.000000130190
  41     -0.000000307430
  42     -0.000002031332
  43     -0.000000037485
  44      0.000000093941
  45      0.000292825609
  46      0.000000006777
  47      0.000000017299
  48     -0.000010797459
  49     -0.000000551569
 Ene=   0.63719775325794E+00
 Spin= Alpha
 Occup=    0.000000
   1      0.000021692865
   2     -0.000161299038
   3      0.000879129723
   4     -0.005617391695
   5      0.000353427128
   6     -0.000000003909
   7     -0.000000174404
   8     -0.000587925656
   9     -0.000000039713
  10      0.000000601031
  11      0.000511327898
  12      0.000000160303
  13     -0.000001325862
  14      0.002591342366
  15     -0.000000154460
  16      0.000000903600
  17     -0.000663234670
  18      0.000000047498
  19      0.000001887975
  20     -0.000116385134
  21      0.000896265527
  22     -0.000344981316
  23      0.001466957459
  24      0.001469024937
  25     -0.001734712091
  26     -0.000000024280
  27      0.000000155397
  28      0.006707744380
  29      0.000000073555
  30      0.000000494288
  31     -0.000273219318
  32      0.000000003424
  33     -0.000000271242
  34     -0.000006771746
  35      0.000055656841
  36      0.000238493277
  37     -0.000855886774
  38      0.003785077027
  39     -0.000414241728
  40     -0.000000049552
  41     -0.000000653710
  42     -0.000878337857
  43      0.000000037953
  44      0.000000172785
  45      0.000266284304
  46     -0.000000002368
  47      0.000000037981
  48     -0.000011287549
  49      0.000000034201
 Ene=   0.64937562463621E+00
 Spin= Alpha
 Occup=    0.000000
   1     -0.000000016364
   2      0.000000122951
   3      0.000000556427
   4     -0.000021073960
   5     -0.000000036829
   6      0.000059497898
   7      0.000000001615
   8     -0.000000350152
   9     -0.000254342885
  10     -0.000000005266
  11      0.000001476086
  12      0.000651736417
  13      0.000000011521
  14      0.000010489796
  15     -0.000590922328
  16     -0.000000007697
  17      0.000000191990
  18     -0.000451970718
  19     -0.000000028885
  20      0.000000433020
  21      0.000000009359
  22      0.000002043585
  23     -0.000016405598
  24      0.000006142416
  25      0.000002727184
  26     -0.000124734616
  27     -0.000000000113
  28      0.000029191410
  29      0.000108782623
  30     -0.000000005112
  31     -0.000000248798
  32      0.000085944747
  33      0.000000003090
  34      0.000000035103
  35      0.000000001203
  36     -0.000002204261
  37      0.000008853805
  38      0.000018495730
  39     -0.000003474851
  40      0.000139084109
  41      0.000000021682
  42      0.000018383007
  43     -0.000097004120
  44     -0.000000019019
  45     -0.000000413387
  46     -0.000011237738
  47     -0.000000000188
  48      0.000000050496
  49      0.000000002686
 Ene=   0.64960786505222E+00
 Spin= Alpha
 Occup=    0.000000
   1      0.000197638578
   2     -0.001493763574
   3     -0.021346391795
   4      0.547617929852
   5     -0.001821950813
   6     -0.000000075874
   7     -0.000000072617
   8      0.011793263628
   9      0.000000106321
  10      0.000000181035
  11     -0.035040971242
  12     -0.000000042708
  13     -0.000000313509
  14     -0.274476987499
  15     -0.000000107457
  16      0.000000183010
  17     -0.000849955979
  18      0.000000339498
  19      0.000000429178
  20     -0.009156719019
  21      0.000084764540
  22     -0.047330684727
  23      0.386919639929
  24     -0.164174558148
  25     -0.054125288292
  26     -0.000000059420
  27      0.000000012528
  28     -0.745094653006
  29      0.000000337249
  30      0.000000183828
  31      0.007308828824
  32     -0.000000046640
  33     -0.000000063710
  34     -0.000770729772
  35      0.000004568536
  36      0.051322703014
  37     -0.206718700888
  38     -0.467220359236
  39      0.086188221813
  40     -0.000000055743
  41     -0.000000111574
  42     -0.436249493535
  43     -0.000000132444
  44     -0.000000041686
  45      0.008355143533
  46      0.000000004030
  47      0.000000003899
  48     -0.001146514807
  49     -0.000000153250
 Ene=   0.65544881813138E+00
 Spin= Alpha
 Occup=    0.000000
   1     -0.000000005344
   2      0.000000039202
   3     -0.000000271779
   4      0.000002296414
   5     -0.000000087159
   6     -0.000148044489
   7     -0.000000002361
   8      0.000000120298
   9     -0.000000051192
  10      0.000000020382
  11     -0.000000033411
  12      0.000670656936
  13     -0.000000057668
  14     -0.000001224947
  15     -0.000834899928
  16      0.000000021321
  17      0.000000115856
  18      0.001024616158
  19      0.000000192618
  20      0.000000010761
  21     -0.000000072985
  22     -0.000000012908
  23      0.000000319857
  24     -0.000000881106
  25      0.000000349199
  26     -0.000043784998
  27      0.000000006038
  28     -0.000002735622
  29      0.000388337597
  30      0.000000076866
  31      0.000000047940
  32     -0.000065072821
  33     -0.000000024930
  34      0.000000002339
  35     -0.000000009534
  36      0.000000017898
  37     -0.000000094394
  38     -0.000001519660
  39      0.000000186334
  40     -0.000983965710
  41     -0.000000074752
  42     -0.000000378264
  43      0.000933644461
  44      0.000000021189
  45     -0.000000047484
  46     -0.000004173974
  47      0.000000003419
  48      0.000000002853
  49     -0.000000023424
 Ene=   0.65702712873301E+00
 Spin= Alpha
 Occup=    0.000000
   1      0.000000002117
   2     -0.000000014612
   3      0.000000117058
   4     -0.000001243277
   5      0.000000040599
   6      0.000180575148
   7     -0.000000055997
   8     -0.000000053090
   9      0.000191336962
  10      0.000000035637
  11      0.000000014034
  12     -0.001509805475
  13      0.000000116876
  14      0.000000670591
  15      0.001713085285
  16     -0.000000131113
  17     -0.000000043760
  18     -0.001279851041
  19      0.000000106661
  20      0.000000008171
  21      0.000000097734
  22      0.000000015712
  23     -0.000000202010
  24      0.000000521370
  25     -0.000000195499
  26      0.000179802305
  27     -0.000000011846
  28      0.000001513229
  29     -0.000673905349
  30     -0.000000009399
  31     -0.000000017580
  32      0.000037576869
  33     -0.000000000438
  34     -0.000000002144
  35      0.000000013596
  36     -0.000000014085
  37      0.000000071996
  38      0.000000807696
  39     -0.000000076164
  40      0.001477678769
  41     -0.000000201703
  42      0.000000166812
  43     -0.001452001961
  44      0.000000255131
  45      0.000000029365
  46      0.000019109056
  47     -0.000000006105
  48     -0.000000004538
  49      0.000000035902
 Ene=   0.72285061695778E+00
 Spin= Alpha
 Occup=    0.000000
   1     -0.000000104831
   2      0.000000619441
   3     -0.000002010349
   4      0.000010377723
   5      0.000000108813
   6      0.039450989426
   7     -0.000121181133
   8     -0.000000076244
   9     -0.306634413785
  10     -0.000825719707
  11     -0.000000212548
  12      0.937869063156
  13      0.003552307418
  14     -0.000004798824
  15     -0.936971739035
  16     -0.003790014758
  17     -0.000000157515
  18      0.450573782551
  19      0.002514457504
  20     -0.000000017270
  21     -0.000000258542
  22     -0.000000480923
  23      0.000003275525
  24     -0.000003954320
  25      0.000000711547
  26     -0.016103652361
  27     -0.000022655577
  28     -0.000011808827
  29      0.279964451275
  30      0.001386594461
  31     -0.000000168123
  32      0.007248893784
  33     -0.000078894385
  34      0.000000012071
  35     -0.000000055320
  36      0.000000069364
  37      0.000000064715
  38     -0.000008047802
  39     -0.000000669348
  40     -0.543221653742
  41     -0.002508670263
  42     -0.000001490365
  43      0.479012375936
  44      0.002058398993
  45     -0.000000002027
  46      0.002075173610
  47      0.000024630003
  48     -0.000000008450
  49     -0.000000106777
 Ene=   0.74128684752887E+00
 Spin= Alpha
 Occup=    0.000000
   1     -0.000592048833
   2      0.004446966530
   3     -0.064232464951
   4      0.738244965181
   5      0.002056420005
   6     -0.000000018800
   7      0.000000120155
   8     -0.028145391825
   9      0.000000050863
  10     -0.000001992731
  11      0.089548934250
  12     -0.000000116917
  13      0.000006653362
  14     -0.478416268785
  15      0.000000131944
  16     -0.000006618589
  17     -0.007281600081
  18     -0.000000077812
  19      0.000003461677
  20     -0.005042988282
  21      0.000025875400
  22     -0.026738274186
  23      0.172582475640
  24     -0.447734447465
  25      0.095550825665
  26      0.000000035070
  27      0.000000002637
  28     -0.830538933442
  29     -0.000000141566
  30      0.000001822496
  31     -0.013240348680
  32      0.000000006711
  33      0.000000025968
  34     -0.000409254636
  35      0.000001254030
  36     -0.001500394448
  37      0.010538823675
  38     -0.442921723835
  39     -0.043394101176
  40     -0.000000019449
  41     -0.000004182064
  42     -0.010751252189
  43      0.000000085652
  44      0.000003746180
  45     -0.004892043546
  46     -0.000000001641
  47      0.000000022234
  48      0.000173232616
  49     -0.000000103970
 Ene=   0.74481826383939E+00
 Spin= Alpha
 Occup=    0.000000
   1     -0.000000019967
   2      0.000000146163
   3     -0.000001137892
   4      0.000009142489
   5     -0.000000128510
   6      0.003804133549
   7     -0.000061012756
   8     -0.000000100541
   9     -0.015406988419
  10      0.000606523109
  11      0.000000938565
  12      0.038866946269
  13     -0.001919690516
  14     -0.000005776804
  15     -0.036319393801
  16      0.001887151868
  17      0.000000148960
  18      0.013878593341
  19     -0.000942927083
  20     -0.000000017275
  21      0.000000315338
  22     -0.000000258172
  23      0.000002105304
  24     -0.000004695582
  25      0.000000895667
  26      0.000322346604
  27     -0.000001191731
  28     -0.000010097201
  29      0.007197078891
  30     -0.000493601425
  31     -0.000000045113
  32      0.001061726904
  33     -0.000015822074
  34     -0.000000024533
  35      0.000000053527
  36     -0.000000015543
  37      0.000000212452
  38     -0.000006066208
  39     -0.000000059266
  40     -0.020985562701
  41      0.001180921627
  42     -0.000001139365
  43      0.020304086946
  44     -0.001070730808
  45     -0.000000050687
  46      0.000010484523
  47     -0.000004063911
  48     -0.000000002370
  49      0.000000056464
 Ene=   0.74794610602788E+00
 Spin= Alpha
 Occup=    0.000000
   1      0.000000040611
   2     -0.000000297744
   3      0.000003684165
   4     -0.000040168184
   5     -0.000000164994
   6     -0.004049819973
   7     -0.000608594080
   8      0.000001626086
   9      0.016075954261
  10      0.004888280885
  11     -0.000005003622
  12     -0.040080422633
  13     -0.014945989777
  14      0.000026094277
  15      0.037232566359
  16      0.014535728548
  17      0.000000373009
  18     -0.013952244610
  19     -0.006990780105
  20      0.000000252033
  21     -0.000000320626
  22      0.000001480598
  23     -0.000009706097
  24      0.000023998832
  25     -0.000004879955
  26      0.000062653289
  27     -0.000067232103
  28      0.000045038789
  29     -0.007375634345
  30     -0.003562595039
  31      0.000000740731
  32     -0.001183489655
  33     -0.000176727921
  34      0.000000043988
  35     -0.000000056562
  36      0.000000099878
  37     -0.000000803761
  38      0.000024728414
  39      0.000002322651
  40      0.021872588839
  41      0.009060868003
  42      0.000001203646
  43     -0.021350537289
  44     -0.008334197902
  45      0.000000220328
  46      0.000061666046
  47     -0.000026995277
  48     -0.000000011153
  49     -0.000000070329
 Ene=   0.75474557595395E+00
 Spin= Alpha
 Occup=    0.000000
   1      0.000011752397
   2     -0.000085516632
   3      0.002918479326
   4     -0.041189875893
   5     -0.000639768543
   6      0.000000197461
   7     -0.000000075353
   8      0.002390251519
   9     -0.000000563932
  10      0.000000242793
  11     -0.005523126814
  12      0.000001190560
  13     -0.000000543007
  14      0.027091543085
  15     -0.000000981019
  16      0.000000444216
  17      0.001030566754
  18      0.000000255283
  19     -0.000000117130
  20      0.000325137872
  21     -0.000068470015
  22      0.001779427967
  23     -0.010703549073
  24      0.026222324554
  25     -0.005258950121
  26      0.000000097089
  27     -0.000000051201
  28      0.046895127132
  29     -0.000000195342
  30      0.000000082707
  31      0.001097130300
  32      0.000000079818
  33     -0.000000034833
  34      0.000026792249
  35     -0.000005727082
  36      0.000102252068
  37     -0.000795032365
  38      0.025041428241
  39      0.003678769142
  40     -0.000000894172
  41      0.000000379791
  42     -0.000451023326
  43      0.000001117429
  44     -0.000000465559
  45      0.000172251791
  46     -0.000000015018
  47      0.000000005554
  48     -0.000007819658
  49      0.000000822615
 Ene=   0.76460988332793E+00
 Spin= Alpha
 Occup=    0.000000
   1      0.000003364068
   2     -0.000027390696
   3     -0.000877117371
   4      0.015961645146
   5      0.000421930136
   6      0.000000057834
   7      0.000000109853
   8     -0.001174111947
   9     -0.000000141371
  10     -0.000000272289
  11      0.002228136835
  12      0.000000249249
  13      0.000000490624
  14     -0.010563784080
  15     -0.000000177386
  16     -0.000000306248
  17     -0.000611316035
  18     -0.000000030473
  19     -0.000000048304
  20     -0.000167675411
  21     -0.000100753950
  22     -0.000787497924
  23      0.004538170766
  24     -0.010501604655
  25      0.001997509209
  26     -0.000000011544
  27      0.000000085056
  28     -0.018451678213
  29     -0.000000012111
  30     -0.000000311751
  31     -0.000539247260
  32      0.000000018953
  33      0.000000062340
  34     -0.000014115955
  35     -0.000008878701
  36     -0.000037316655
  37      0.000341281619
  38     -0.009899061831
  39     -0.001851697258
  40     -0.000000069008
  41     -0.000000422783
  42      0.000484094720
  43      0.000000108826
  44      0.000000646060
  45     -0.000032901745
  46      0.000000005618
  47     -0.000000009578
  48      0.000002615960
  49      0.000001432656
 Ene=   0.87002603288167E+00
 Spin= Alpha
 Occup=    0.000000
   1      0.000000054257
   2     -0.000000252596
   3      0.000000091723
   4     -0.000003579624
   5      0.000000204617
   6      0.019008796333
   7      0.000026785809
   8     -0.000000761397
   9     -0.144241301356
  10      0.000042510694
  11      0.000001968652
  12      0.469172243898
  13     -0.000298813167
  14      0.000000271116
  15     -0.749569757509
  16      0.000560686725
  17      0.000000064857
  18      0.410668143480
  19     -0.000361448034
  20     -0.000000025478
  21     -0.000000051938
  22      0.000000281714
  23     -0.000002609257
  24     -0.000003380198
  25      0.000000808214
  26     -0.240492264688
  27      0.000190877374
  28      0.000007742679
  29      1.159701834313
  30     -0.000964037569
  31     -0.000000052112
  32     -0.147477835121
  33      0.000131966636
  34      0.000000016795
  35      0.000000017743
  36     -0.000000007520
  37     -0.000000936117
  38      0.000009952572
  39      0.000000647368
  40      0.757704994494
  41     -0.000642574169
  42      0.000003325001
  43     -1.378398241237
  44      0.001172060379
  45     -0.000000104427
  46      0.052725387862
  47     -0.000044243937
  48      0.000000023546
  49      0.000000155476
 Ene=   0.88650958530289E+00
 Spin= Alpha
 Occup=    0.000000
   1      0.000000012199
   2     -0.000000085208
   3      0.000000271452
   4      0.000000845537
   5     -0.000000004142
   6      0.002143647485
   7     -0.000546820763
   8      0.000000109242
   9     -0.007238366472
  10      0.004330582414
  11     -0.000000374808
  12      0.017593032209
  13     -0.014057239270
  14     -0.000000294150
  15     -0.024634672656
  16      0.021624779308
  17     -0.000000051238
  18      0.011879880066
  19     -0.011878777903
  20      0.000000003920
  21      0.000000107022
  22     -0.000000075145
  23      0.000000588279
  24      0.000000049958
  25     -0.000000191229
  26     -0.007094911671
  27      0.006445861602
  28     -0.000001745483
  29      0.033959143560
  30     -0.032178296565
  31     -0.000000015387
  32     -0.004197876661
  33      0.004254956429
  34     -0.000000015953
  35      0.000000003146
  36      0.000000022568
  37      0.000000028348
  38     -0.000001674160
  39     -0.000000293020
  40      0.021745743500
  41     -0.020882954118
  42     -0.000000347030
  43     -0.039436445509
  44      0.038036892146
  45      0.000000024553
  46      0.001570948968
  47     -0.001497323059
  48     -0.000000002488
  49     -0.000000106144
 Ene=   0.89196078151934E+00
 Spin= Alpha
 Occup=    0.000000
   1     -0.000002922088
   2      0.000022504708
   3     -0.000114243434
   4      0.000175090976
   5     -0.000004030704
   6     -0.000000019478
   7     -0.000000025336
   8     -0.000033419373
   9      0.000000061731
  10      0.000000052010
  11      0.000148883045
  12     -0.000000128749
  13     -0.000000070329
  14     -0.000201949308
  15      0.000000155536
  16      0.000000038986
  17      0.000060771966
  18     -0.000000059191
  19      0.000000005356
  20      0.000003044181
  21     -0.000032138737
  22      0.000019295528
  23     -0.000085847784
  24     -0.000097999951
  25      0.000053015149
  26      0.000000032705
  27     -0.000000011079
  28     -0.000020549409
  29     -0.000000175529
  30      0.000000048673
  31      0.000011923968
  32      0.000000018561
  33     -0.000000016221
  34      0.000000279917
  35     -0.000007090653
  36     -0.000010798693
  37      0.000042048196
  38      0.000025811732
  39      0.000117955041
  40     -0.000000108278
  41      0.000000079850
  42     -0.000061677289
  43      0.000000198245
  44     -0.000000110701
  45     -0.000008823532
  46     -0.000000005660
  47      0.000000003327
  48      0.000000438667
  49      0.000001622066
 Ene=   0.89880509416677E+00
 Spin= Alpha
 Occup=    0.000000
   1     -0.000006481415
   2      0.000049949809
   3     -0.000255989188
   4      0.000413895094
   5     -0.000003484388
   6      0.000000002020
   7     -0.000000141132
   8     -0.000083731287
   9     -0.000000005971
  10      0.000000301608
  11      0.000341254882
  12      0.000000010358
  13     -0.000000439294
  14     -0.000469789902
  15     -0.000000010507
  16      0.000000298724
  17      0.000136379986
  18     -0.000000004531
  19     -0.000000039454
  20      0.000007773788
  21      0.000043399258
  22      0.000041611235
  23     -0.000183623684
  24     -0.000234361279
  25      0.000118821467
  26     -0.000000010658
  27     -0.000000035655
  28     -0.000071529291
  29      0.000000013943
  30      0.000000130443
  31      0.000025641402
  32     -0.000000006047
  33     -0.000000066871
  34      0.000000892472
  35      0.000010545200
  36     -0.000023800937
  37      0.000093207802
  38      0.000043128344
  39      0.000261415057
  40      0.000000015552
  41      0.000000362757
  42     -0.000139909208
  43     -0.000000020661
  44     -0.000000454395
  45     -0.000019600251
  46      0.000000012834
  47      0.000000009361
  48      0.000000915256
  49     -0.000001971804
 Ene=   0.92143280715435E+00
 Spin= Alpha
 Occup=    0.000000
   1      0.003551118100
   2     -0.027441508864
   3      0.145383921844
   4     -0.274490991186
   5     -0.008239595545
   6      0.000000082594
   7      0.000000047620
   8      0.063454818436
   9     -0.000000170574
  10      0.000000038084
  11     -0.206704685710
  12      0.000000273106
  13     -0.000000367113
  14      0.297860913978
  15     -0.000000309555
  16      0.000000597721
  17     -0.079199661866
  18      0.000000121569
  19     -0.000000312295
  20     -0.003606623116
  21     -0.000005123344
  22     -0.020968201639
  23      0.089321667137
  24      0.156452461898
  25     -0.066307622897
  26     -0.000000096412
  27      0.000000195741
  28      0.088310192797
  29      0.000000447982
  30     -0.000000958615
  31     -0.012898997052
  32     -0.000000057922
  33      0.000000147595
  34     -0.000380511858
  35     -0.000000180541
  36      0.012833764385
  37     -0.051603387359
  38      0.005891290501
  39     -0.143495064285
  40      0.000000379549
  41     -0.000000723635
  42      0.084404300781
  43     -0.000000597068
  44      0.000001221452
  45      0.010817948730
  46      0.000000024696
  47     -0.000000054419
  48     -0.000520531132
  49      0.000000212159
 Ene=   0.92978752423009E+00
 Spin= Alpha
 Occup=    0.000000
   1     -0.000000001351
   2      0.000000010655
   3      0.000000130422
   4     -0.000003075667
   5     -0.000000052810
   6     -0.003001260119
   7      0.000055082467
   8      0.000000119869
   9      0.006476565141
  10     -0.000132214157
  11     -0.000000212729
  12     -0.010590458076
  13      0.000243161579
  14      0.000001968340
  15      0.011437469319
  16     -0.000274853460
  17     -0.000000162201
  18     -0.004037671044
  19      0.000107221388
  20     -0.000000010479
  21     -0.000000160076
  22      0.000000092404
  23     -0.000001004296
  24      0.000000246585
  25      0.000000055876
  26      0.002064408272
  27     -0.000052575854
  28      0.000004375429
  29     -0.010996234776
  30      0.000282121591
  31      0.000000015041
  32      0.001173720528
  33     -0.000032578058
  34      0.000000034669
  35     -0.000000025933
  36      0.000000055933
  37     -0.000000595060
  38      0.000004292604
  39      0.000000079367
  40     -0.006163878403
  41      0.000161029205
  42      0.000001285986
  43      0.011579321345
  44     -0.000302315723
  45     -0.000000021226
  46     -0.000587706646
  47      0.000014624442
  48      0.000000002106
  49      0.000000099563
 Ene=   0.10609744484663E+01
 Spin= Alpha
 Occup=    0.000000
   1      0.000260491775
   2     -0.002007511879
   3      0.005897061764
   4      0.089761136601
   5     -0.000005653808
   6      0.000000042375
   7      0.000000166905
   8      0.000273488869
   9     -0.000000075618
  10     -0.000000290456
  11     -0.001313163035
  12      0.000000086646
  13      0.000000335976
  14     -0.054066579899
  15     -0.000000067992
  16     -0.000000282237
  17      0.010893024928
  18      0.000000016768
  19      0.000000068003
  20      0.000218170551
  21     -0.000002776417
  22     -0.002222317460
  23      0.033828517659
  24      0.058851436183
  25     -0.007270316955
  26     -0.000000005413
  27     -0.000000029494
  28     -0.176034558871
  29      0.000000033691
  30      0.000000165299
  31      0.003448601860
  32      0.000000001999
  33     -0.000000004480
  34     -0.000010719757
  35      0.000000289576
  36     -0.003872837681
  37      0.036911020257
  38     -0.219975269195
  39     -0.001854504099
  40      0.000000003540
  41      0.000000056350
  42     -0.071990268136
  43     -0.000000018175
  44     -0.000000124295
  45      0.001156074266
  46      0.000000000926
  47      0.000000007420
  48     -0.000048739968
  49      0.000001309045
 Ene=   0.10697904331080E+01
 Spin= Alpha
 Occup=    0.000000
   1      0.000000004270
   2     -0.000000033605
   3      0.000000201306
   4     -0.000000440253
   5     -0.000000165325
   6      0.000130333884
   7      0.000014198532
   8      0.000000317493
   9     -0.000216305277
  10     -0.000024221496
  11     -0.000000454690
  12      0.000222799578
  13      0.000026482642
  14      0.000000535530
  15     -0.000163187011
  16     -0.000020059883
  17     -0.000000084335
  18     -0.000006714286
  19     -0.000000145754
  20     -0.000000000048
  21      0.000000007062
  22     -0.000000012114
  23      0.000000095795
  24      0.000000507344
  25     -0.000000133704
  26      0.000063601629
  27      0.000006623533
  28      0.000000068432
  29      0.000037631017
  30      0.000006054569
  31      0.000000025277
  32     -0.000011103331
  33     -0.000001388204
  34     -0.000000001943
  35     -0.000000003822
  36      0.000000014940
  37     -0.000000038983
  38     -0.000000227056
  39     -0.000000150271
  40      0.000151398915
  41      0.000018027182
  42     -0.000000037764
  43     -0.000175030884
  44     -0.000021438441
  45      0.000000014878
  46      0.000045836910
  47      0.000005002297
  48     -0.000000001889
  49     -0.000000023072
 Ene=   0.12599387234346E+01
 Spin= Alpha
 Occup=    0.000000
   1      0.000006766636
   2     -0.000604325876
   3      0.032664907122
   4     -0.119867537992
   5     -0.001917027903
   6      0.000000063429
   7      0.000000039020
   8      0.001660673716
   9     -0.000000097759
  10     -0.000000064751
  11     -0.007833690958
  12      0.000000085899
  13      0.000000061959
  14      0.087708303187
  15     -0.000000059652
  16     -0.000000046301
  17     -0.051075688002
  18      0.000000015532