[Molden Format]
[Title]
generated by TRESC, real part2 of MOs of job SCN
 
[Atoms] AU
 S   1  16    0.0000000000    0.0000000000    1.9184736755
 C   2   6    0.0000000000    0.0000000000   -1.1567057569
 N   3   7    0.0000000000    0.0000000000   -3.3890492760
[GTO]
  1 0
 s  5 1.0
    10081.3659290000        0.0067330718
     1468.8676987000        0.0423201277
      327.2465016600        0.1866835343
       90.5285201140        0.4849802687
       27.5058308280        0.4517376429
 s  3 1.0
       46.3853988360       -0.0950589434
        5.0228188449        0.5843701906
        2.0306206045        0.5413909427
 s  1 1.0
        0.3606627882        1.0000000000
 s  1 1.0
        0.1371410729        1.0000000000
 p  5 1.0
      604.8788900300        0.0002353489
      140.0897861900        0.0017386166
       44.4994657800        0.0077865988
       16.4748871580        0.0220140918
        6.5229645048        0.0378945448
 p  5 1.0
      270.9504306400        0.0092081513
       62.5377853170        0.0653131413
       19.3546142200        0.2445470601
        6.7163477485        0.4820783852
        2.4098646724        0.3917477785
 p  1 1.0
        0.6191509478        1.0000000000
 p  1 1.0
        0.1701457548        1.0000000000
 d  1 1.0
        0.5500000000        1.0000000000
 
  2 0
 s  5 1.0
     1231.7975026000        0.0058423196
      185.5974766200        0.0415113222
       42.0875016200        0.1832849990
       11.6300369400        0.4683526005
        3.5840894779        0.4430601820
 s  1 1.0
        0.4029351893        1.0000000000
 s  1 1.0
        0.1309419451        1.0000000000
 p  3 1.0
        9.4821246358        0.0381720490
        2.0121097169        0.2099973699
        0.5481253660        0.5104097902
 p  1 1.0
        0.1527756940        1.0000000000
 d  1 1.0
        0.8000000000        1.0000000000
 
  3 0
 s  5 1.0
     1706.0150550000        0.0058639453
      255.9938356800        0.0413450288
       58.1565771970        0.1820914202
       16.1430707430        0.4678591214
        4.9963209539        0.4434151324
 s  1 1.0
        0.5882550288        1.0000000000
 s  1 1.0
        0.1877013255        1.0000000000
 p  3 1.0
       13.5897862110        0.0400190920
        2.9274822154        0.2175789499
        0.7994670210        0.5117738303
 p  1 1.0
        0.2195247995        1.0000000000
 d  1 1.0
        1.0000000000        1.0000000000
 
[5D]
[7F]
[9G]
[MO]
 Ene=   0.62067029056516E+00
 Spin= Alpha
 Occup=    0.000000
   1      0.000000156282
   2     -0.000000990323
   3      0.000002959531
   4     -0.000000052870
   5     -0.000000114724
   6      0.000005339721
   7     -0.037960282045
   8      0.000000153889
   9     -0.000018151974
  10      0.259898074053
  11     -0.000000168517
  12      0.000040376830
  13     -0.753603555478
  14     -0.000001083468
  15     -0.000027971084
  16      0.620027772006
  17      0.000000247989
  18     -0.000055027031
  19      0.757092688265
  20      0.000000679152
  21      0.000002206851
  22      0.000000006650
  23      0.000000564112
  24      0.000000361337
  25      0.000000387444
  26     -0.000004359723
  27      0.106016785724
  28     -0.000004217633
  29     -0.000014791869
  30      0.088901419696
  31      0.000000243523
  32      0.000007823533
  33     -0.116695376244
  34      0.000000048002
  35      0.000000129579
  36      0.000000330070
  37     -0.000001678284
  38     -0.000001664215
  39      0.000000820640
  40      0.000018366060
  41     -0.213933265977
  42     -0.000001562051
  43     -0.000004472219
  44      0.048338988834
  45     -0.000000104994
  46     -0.000001022099
  47      0.015217602817
  48     -0.000000000335
  49      0.000000006164
 Ene=   0.62808672993442E+00
 Spin= Alpha
 Occup=    0.000000
   1     -0.000174369432
   2      0.001281048527
   3     -0.007019318612
   4      0.055348808864
   5     -0.002809040900
   6     -0.000000031938
   7     -0.000000065311
   8      0.005592989306
   9      0.000000413667
  10      0.000000052868
  11     -0.007450889349
  12     -0.000001276269
  13      0.000000068564
  14     -0.023499568573
  15      0.000001090978
  16     -0.000000085962
  17      0.006222819326
  18      0.000000389223
  19     -0.000000457644
  20      0.004973860842
  21     -0.000100673968
  22      0.002575183494
  23     -0.007884915001
  24     -0.010760038481
  25      0.014462310690
  26      0.000000239318
  27     -0.000000201548
  28     -0.071037040888
  29     -0.000000330307
  30      0.000000174732
  31      0.002834360150
  32     -0.000000100461
  33      0.000000038298
  34      0.000287467099
  35     -0.000005963446
  36     -0.001152923109
  37      0.003626338301
  38     -0.041936970967
  39      0.005555412172
  40     -0.000000061135
  41      0.000000362725
  42      0.000021856655
  43      0.000000017619
  44     -0.000000343020
  45     -0.002323636695
  46      0.000000009990
  47     -0.000000010580
  48      0.000085684974
  49     -0.000000050070
 Ene=   0.63719775325794E+00
 Spin= Alpha
 Occup=    0.000000
   1     -0.000099868648
   2      0.000742580957
   3     -0.004047343444
   4      0.025862034887
   5     -0.001627074030
   6      0.000000089078
   7      0.000000003257
   8      0.002706635317
   9      0.000000047415
  10     -0.000000076398
  11     -0.002354008271
  12     -0.000000558735
  13      0.000000252392
  14     -0.011930432467
  15      0.000000666454
  16     -0.000000183735
  17      0.003053304947
  18     -0.000000558768
  19     -0.000000567085
  20      0.000535599016
  21      0.000194745957
  22      0.001588041827
  23     -0.006752252978
  24     -0.006763326617
  25      0.007985868517
  26      0.000000160412
  27     -0.000000139001
  28     -0.030882078337
  29     -0.000000604792
  30     -0.000000003027
  31      0.001257825417
  32      0.000000036472
  33      0.000000064286
  34      0.000031162084
  35      0.000012095163
  36     -0.001097795614
  37      0.003939632413
  38     -0.017426420053
  39      0.001907357410
  40      0.000000291055
  41      0.000000300446
  42      0.004042208043
  43     -0.000000068053
  44     -0.000000191452
  45     -0.001225854453
  46     -0.000000008845
  47     -0.000000008984
  48      0.000051962728
  49      0.000000020074
 Ene=   0.64937562463621E+00
 Spin= Alpha
 Occup=    0.000000
   1      0.000000032664
   2     -0.000000245739
   3     -0.000002131752
   4      0.000062390518
   5     -0.000000066702
   6      0.000000000092
   7     -0.000028921117
   8      0.000001187152
   9     -0.000000005854
  10      0.000324705703
  11     -0.000004071341
  12      0.000000020466
  13     -0.001035761950
  14     -0.000031237315
  15     -0.000000019038
  16      0.000957091461
  17     -0.000000331939
  18     -0.000000014194
  19      0.000580567343
  20     -0.000001158779
  21      0.000000004839
  22     -0.000005713691
  23      0.000046267993
  24     -0.000018558248
  25     -0.000007080798
  26     -0.000000005406
  27      0.000158791241
  28     -0.000085451857
  29      0.000000003048
  30     -0.000132837910
  31      0.000000779365
  32      0.000000003028
  33     -0.000120620355
  34     -0.000000095759
  35      0.000000000576
  36      0.000006172009
  37     -0.000024825514
  38     -0.000053808297
  39      0.000010092224
  40     -0.000000000188
  41     -0.000076485359
  42     -0.000052023046
  43      0.000000002874
  44     -0.000017486350
  45      0.000001085457
  46     -0.000000000692
  47      0.000015895292
  48     -0.000000139864
  49     -0.000000000168
 Ene=   0.64960786505222E+00
 Spin= Alpha
 Occup=    0.000000
   1     -0.000754297976
   2      0.005701020127
   3      0.081469006352
   4     -2.089996336323
   5      0.006953504787
   6      0.000000098538
   7     -0.000000099504
   8     -0.045009184544
   9     -0.000000260070
  10      0.000000313447
  11      0.133734435879
  12      0.000000523308
  13     -0.000000671647
  14      1.047547914113
  15     -0.000000269283
  16      0.000000378846
  17      0.003243979107
  18     -0.000000086448
  19      0.000001179332
  20      0.034949130833
  21      0.000024326010
  22      0.180638587673
  23     -1.476687138920
  24      0.626577019462
  25      0.206570247410
  26      0.000000175173
  27      0.000000068356
  28      2.843670000978
  29     -0.000000601770
  30      0.000000421503
  31     -0.027894207464
  32      0.000000063002
  33     -0.000000168741
  34      0.002941642466
  35      0.000001372665
  36     -0.195874154995
  37      0.788946231751
  38      1.783156152303
  39     -0.328939045224
  40     -0.000000533981
  41     -0.000000387984
  42      1.664954998315
  43      0.000000942851
  44      0.000000042726
  45     -0.031887615574
  46      0.000000000717
  47      0.000000022608
  48      0.004375752511
  49      0.000000136909
 Ene=   0.65544881813138E+00
 Spin= Alpha
 Occup=    0.000000
   1      0.000000004140
   2     -0.000000030878
   3      0.000000261343
   4     -0.000002881632
   5      0.000000090672
   6      0.000000000526
   7     -0.000157022929
   8     -0.000000152159
   9     -0.000000006829
  10      0.000068253338
  11      0.000000143840
  12      0.000000021817
  13      0.000464452459
  14      0.000001461818
  15     -0.000000019071
  16     -0.000638321577
  17     -0.000000127640
  18     -0.000000000720
  19      0.000928544454
  20     -0.000000009929
  21     -0.000000018815
  22      0.000000066881
  23     -0.000000780224
  24      0.000000976914
  25     -0.000000270986
  26     -0.000000003242
  27     -0.000047283278
  28      0.000003634657
  29     -0.000000001481
  30      0.000360850267
  31     -0.000000071722
  32      0.000000000955
  33     -0.000066819558
  34     -0.000000001873
  35     -0.000000002955
  36     -0.000000082423
  37      0.000000356423
  38      0.000002123163
  39     -0.000000283406
  40     -0.000000012952
  41     -0.000838693298
  42      0.000000918707
  43      0.000000019650
  44      0.000775634620
  45      0.000000036354
  46      0.000000001423
  47     -0.000004099352
  48      0.000000000326
  49      0.000000001255
 Ene=   0.65702712873301E+00
 Spin= Alpha
 Occup=    0.000000
   1     -0.000000000715
   2      0.000000005076
   3     -0.000000022344
   4      0.000000311567
   5     -0.000000022611
   6      0.000000042087
   7      0.000243049374
   8      0.000000043178
   9      0.000000056567
  10     -0.000233601695
  11     -0.000000057933
  12     -0.000000394651
  13     -0.000256216377
  14     -0.000000119899
  15      0.000000440275
  16      0.000531246668
  17      0.000000043127
  18     -0.000000296054
  19     -0.001584068465
  20      0.000000012239
  21      0.000000021131
  22      0.000000025624
  23     -0.000000137815
  24     -0.000000092355
  25      0.000000157417
  26      0.000000048726
  27      0.000032768112
  28     -0.000000430153
  29     -0.000000163589
  30     -0.000446527646
  31      0.000000023276
  32      0.000000006851
  33      0.000143637845
  34      0.000000003222
  35      0.000000003781
  36     -0.000000020905
  37      0.000000070630
  38     -0.000000214738
  39      0.000000002890
  40      0.000000360522
  41      0.001315721747
  42      0.000000151147
  43     -0.000000360322
  44     -0.001226581675
  45     -0.000000023768
  46      0.000000002495
  47      0.000005627593
  48      0.000000001410
  49     -0.000000003002
 Ene=   0.72285061695778E+00
 Spin= Alpha
 Occup=    0.000000
   1      0.000000000547
   2      0.000000007194
   3     -0.000000311694
   4      0.000002020511
   5      0.000000022901
   6     -0.003785933823
   7     -0.001275253261
   8     -0.000000147680
   9      0.029426958338
  10     -0.008506890677
  11      0.000000480639
  12     -0.090005396753
  13      0.036718435799
  14     -0.000001560669
  15      0.089919447860
  16     -0.039194986266
  17     -0.000000015822
  18     -0.043241079922
  19      0.026052733381
  20     -0.000000010358
  21     -0.000000328711
  22     -0.000000080464
  23      0.000000658383
  24     -0.000001130697
  25     -0.000000171714
  26      0.001545439899
  27     -0.000230766056
  28     -0.000001864235
  29     -0.026867892491
  30      0.014356116671
  31     -0.000000069903
  32     -0.000695609937
  33     -0.000823637274
  34     -0.000000029729
  35     -0.000000046131
  36      0.000000032059
  37     -0.000000079111
  38     -0.000001157673
  39      0.000000039065
  40      0.052132086676
  41     -0.025967705480
  42     -0.000000641312
  43     -0.045969893232
  44      0.021298575000
  45      0.000000044736
  46     -0.000199141438
  47      0.000255958481
  48      0.000000017512
  49     -0.000000006643
 Ene=   0.74128684752887E+00
 Spin= Alpha
 Occup=    0.000000
   1      0.003787542282
   2     -0.028448789840
   3      0.410917315719
   4     -4.722808753482
   5     -0.013155618541
   6      0.000000300963
   7      0.000000230090
   8      0.180055833579
   9     -0.000000949126
  10     -0.000001787677
  11     -0.572875581082
  12      0.000002161900
  13      0.000005461136
  14      3.060594473534
  15     -0.000002010540
  16     -0.000005394970
  17      0.046582973755
  18      0.000000676153
  19      0.000002668856
  20      0.032264499987
  21      0.000005954574
  22      0.171054163408
  23     -1.104071014807
  24      2.864311813474
  25     -0.611271244444
  26     -0.000000157350
  27      0.000000045351
  28      5.313245543862
  29      0.000000763729
  30      0.000001437053
  31      0.084703137434
  32      0.000000048963
  33      0.000000034152
  34      0.002618350171
  35      0.000000351672
  36      0.009598489637
  37     -0.067420487134
  38      2.833524857932
  39      0.277607053893
  40     -0.000000738684
  41     -0.000003195300
  42      0.068780771333
  43      0.000000548887
  44      0.000002814247
  45      0.031296001867
  46     -0.000000005005
  47      0.000000019585
  48     -0.001108222414
  49     -0.000000068265
 Ene=   0.74481826383939E+00
 Spin= Alpha
 Occup=    0.000000
   1      0.000000024319
   2     -0.000000154183
   3      0.000000893779
   4     -0.000006640178
   5     -0.000000077754
   6     -0.000040290345
   7     -0.005710936968
   8      0.000000282316
   9      0.000162204408
  10      0.056792261254
  11     -0.000000693841
  12     -0.000408117466
  13     -0.179761187535
  14      0.000004096827
  15      0.000381073047
  16      0.176712975635
  17      0.000000087986
  18     -0.000144967594
  19     -0.088268204531
  20      0.000000052370
  21      0.000000204583
  22      0.000000270959
  23     -0.000001842840
  24      0.000003522411
  25     -0.000000428046
  26     -0.000003441162
  27     -0.000112409368
  28      0.000007212336
  29     -0.000075083570
  30     -0.046199419044
  31      0.000000158613
  32     -0.000011257731
  33     -0.001485631795
  34      0.000000026873
  35      0.000000033472
  36     -0.000000008242
  37     -0.000000114931
  38      0.000004396673
  39      0.000000401105
  40      0.000220000896
  41      0.110584565392
  42      0.000000661376
  43     -0.000213123476
  44     -0.100281707488
  45     -0.000000013984
  46     -0.000000109019
  47     -0.000380457175
  48      0.000000003430
  49      0.000000005845
 Ene=   0.74794610602788E+00
 Spin= Alpha
 Occup=    0.000000
   1     -0.000000111833
   2      0.000000692098
   3     -0.000003321604
   4      0.000024075562
   5      0.000000246376
   6     -0.000067041984
   7      0.037459099911
   8     -0.000000856198
   9      0.000270388542
  10     -0.300866810973
  11      0.000002015782
  12     -0.000678956971
  13      0.919900949093
  14     -0.000014204332
  15      0.000631943950
  16     -0.894654443407
  17     -0.000000311221
  18     -0.000239635819
  19      0.430298799906
  20     -0.000000205815
  21     -0.000000143154
  22     -0.000000974246
  23      0.000006423568
  24     -0.000012731397
  25      0.000002242206
  26      0.000000949611
  27      0.004136339472
  28     -0.000026577217
  29     -0.000126618730
  30      0.219296069615
  31     -0.000000513061
  32     -0.000019552087
  33      0.010873180872
  34     -0.000000035618
  35     -0.000000027225
  36     -0.000000046910
  37      0.000000713252
  38     -0.000016107474
  39     -0.000001695829
  40      0.000371997201
  41     -0.557680642311
  42     -0.000001504592
  43     -0.000362076590
  44      0.512938783868
  45     -0.000000043493
  46      0.000000956456
  47      0.001661599929
  48     -0.000000002007
  49     -0.000000011738
 Ene=   0.75474557595395E+00
 Spin= Alpha
 Occup=    0.000000
   1     -0.000069965863
   2      0.000509113905
   3     -0.017370778129
   4      0.245153522535
   5      0.003807689903
   6      0.000000038890
   7      0.000000074649
   8     -0.014226368203
   9     -0.000000127622
  10      0.000000357848
  11      0.032873254253
  12      0.000000218015
  13     -0.000001603310
  14     -0.161243706733
  15     -0.000000183861
  16      0.000001745883
  17     -0.006133543168
  18     -0.000000196805
  19     -0.000001016605
  20     -0.001935276805
  21     -0.000011623797
  22     -0.010590654855
  23      0.063704538979
  24     -0.156070118108
  25      0.031300521594
  26     -0.000000220599
  27      0.000000131465
  28     -0.279108804174
  29      0.000000583536
  30     -0.000000897615
  31     -0.006529887706
  32     -0.000000008499
  33      0.000000045118
  34     -0.000159470615
  35     -0.000000966027
  36     -0.000608697182
  37      0.004732328598
  38     -0.149040370738
  39     -0.021894782105
  40      0.000000733720
  41      0.000000800007
  42      0.002684537852
  43     -0.000001015213
  44     -0.000000484983
  45     -0.001025239923
  46      0.000000007512
  47     -0.000000011815
  48      0.000046549334
  49      0.000000175555
 Ene=   0.76460988332793E+00
 Spin= Alpha
 Occup=    0.000000
   1     -0.000017059002
   2      0.000138896407
   3      0.004447594772
   4     -0.080937199906
   5     -0.002139515795
   6     -0.000000090890
   7      0.000000146957
   8      0.005953611486
   9      0.000000220164
  10     -0.000000824899
  11     -0.011298193123
  12     -0.000000346213
  13      0.000002321513
  14      0.053566036413
  15      0.000000211552
  16     -0.000002167675
  17      0.003099799622
  18      0.000000176039
  19      0.000000864682
  20      0.000850309002
  21     -0.000019818611
  22      0.003993186913
  23     -0.023011854875
  24      0.053250647669
  25     -0.010128804714
  26      0.000000082181
  27     -0.000000001941
  28      0.093563617059
  29     -0.000000141901
  30      0.000000422473
  31      0.002734366253
  32     -0.000000028693
  33      0.000000060182
  34      0.000071584031
  35     -0.000001750246
  36      0.000189219357
  37     -0.001730549029
  38      0.050195671769
  39      0.009389450016
  40     -0.000000235546
  41     -0.000001341995
  42     -0.002454637455
  43      0.000000254045
  44      0.000001342694
  45      0.000166837713
  46      0.000000003002
  47     -0.000000011849
  48     -0.000013262372
  49      0.000000262246
 Ene=   0.87002603288167E+00
 Spin= Alpha
 Occup=    0.000000
   1     -0.000000002984
   2      0.000000022494
   3     -0.000000130482
   4      0.000000075477
   5      0.000000015100
   6      0.000559754548
   7     -0.000891263258
   8     -0.000000057716
   9     -0.004247333219
  10     -0.001584838485
  11      0.000000164982
  12      0.013815146899
  13      0.010607296998
  14     -0.000000162340
  15     -0.022071614354
  16     -0.019770024842
  17      0.000000026136
  18      0.012092376273
  19      0.012673277814
  20      0.000000007890
  21     -0.000000127209
  22      0.000000018300
  23     -0.000000083918
  24     -0.000000063761
  25     -0.000000047644
  26     -0.007081452546
  27     -0.006714907898
  28      0.000000189581
  29      0.034148198047
  30      0.033862073774
  31     -0.000000007402
  32     -0.004342582076
  33     -0.004623974844
  34     -0.000000021402
  35     -0.000000021334
  36     -0.000000008182
  37      0.000000031882
  38      0.000000140955
  39      0.000000090295
  40      0.022311183712
  41      0.022554054210
  42     -0.000000076772
  43     -0.040587902552
  44     -0.041136547134
  45      0.000000010229
  46      0.001552543371
  47      0.001553370032
  48     -0.000000029272
  49      0.000000009529
 Ene=   0.88650958530289E+00
 Spin= Alpha
 Occup=    0.000000
   1      0.000000069626
   2     -0.000000333451
   3      0.000000241477
   4     -0.000002078155
   5      0.000000088235
   6     -0.000059380299
   7     -0.019526092234
   8     -0.000000608478
   9      0.000198101054
  10      0.154647484367
  11      0.000001918635
  12     -0.000478047408
  13     -0.501999195407
  14     -0.000000724540
  15      0.000667561062
  16      0.772253337245
  17      0.000000500348
  18     -0.000320486795
  19     -0.424209402806
  20      0.000000024815
  21      0.000000110374
  22      0.000000322634
  23     -0.000002143946
  24     -0.000001615660
  25      0.000000634762
  26      0.000192104768
  27      0.230193519865
  28      0.000004441403
  29     -0.000918102423
  30     -1.149144132581
  31      0.000000146980
  32      0.000113233854
  33      0.151952634911
  34      0.000000018241
  35      0.000000014420
  36     -0.000000006334
  37     -0.000000539315
  38      0.000005693496
  39      0.000001296630
  40     -0.000587789822
  41     -0.745772324370
  42      0.000001128715
  43      0.001065684553
  44      1.358369998151
  45     -0.000000137032
  46     -0.000042472310
  47     -0.053472463613
  48      0.000000005933
  49      0.000000000256
 Ene=   0.89196078151934E+00
 Spin= Alpha
 Occup=    0.000000
   1      0.000437126498
   2     -0.003366615244
   3      0.017088600106
   4     -0.026159470389
   5      0.000609606581
   6      0.000000011020
   7     -0.000000025448
   8      0.004984598539
   9     -0.000000010365
  10      0.000000147709
  11     -0.022251363370
  12     -0.000000056784
  13     -0.000000391436
  14      0.030178805484
  15      0.000000155060
  16      0.000000302305
  17     -0.009098521416
  18     -0.000000153539
  19     -0.000000033561
  20     -0.000456563770
  21     -0.000000247380
  22     -0.002889507994
  23      0.012854318297
  24      0.014622387709
  25     -0.007918614709
  26     -0.000000026728
  27      0.000000002035
  28      0.003041329164
  29     -0.000000048474
  30      0.000000027039
  31     -0.001789677123
  32      0.000000011106
  33     -0.000000028804
  34     -0.000042001093
  35     -0.000000063836
  36      0.001613659000
  37     -0.006281064467
  38     -0.003874324446
  39     -0.017653665691
  40      0.000000200104
  41      0.000000213393
  42      0.009238502714
  43     -0.000000140621
  44     -0.000000296756
  45      0.001320384776
  46      0.000000006269
  47      0.000000005001
  48     -0.000065559085
  49     -0.000000046942
 Ene=   0.89880509416677E+00
 Spin= Alpha
 Occup=    0.000000
   1      0.000384740431
   2     -0.002965048633
   3      0.015195608163
   4     -0.024568591779
   5      0.000206344382
   6      0.000000131743
   7      0.000000000501
   8      0.004971083292
   9     -0.000000264495
  10      0.000000033519
  11     -0.020257223049
  12      0.000000324383
  13     -0.000000107564
  14      0.027886734059
  15     -0.000000158159
  16      0.000000004868
  17     -0.008095235046
  18     -0.000000056161
  19      0.000000069122
  20     -0.000461537234
  21      0.000000706076
  22     -0.002469991291
  23      0.010899830722
  24      0.013912445616
  25     -0.007053433236
  26      0.000000004085
  27     -0.000000034805
  28      0.004245219766
  29     -0.000000086106
  30      0.000000247248
  31     -0.001521942746
  32      0.000000058002
  33     -0.000000042997
  34     -0.000052998407
  35      0.000000165470
  36      0.001412843171
  37     -0.005532850471
  38     -0.002561124819
  39     -0.015517387244
  40     -0.000000112073
  41      0.000000274667
  42      0.008304424935
  43      0.000000197762
  44     -0.000000450982
  45      0.001163450803
  46     -0.000000008675
  47      0.000000002917
  48     -0.000054367967
  49     -0.000000075605
 Ene=   0.92143280715435E+00
 Spin= Alpha
 Occup=    0.000000
   1      0.016691276814
   2     -0.128982995298
   3      0.683346603119
   4     -1.290188983377
   5     -0.038728494852
   6     -0.000000004017
   7      0.000000039037
   8      0.298256143100
   9      0.000000015993
  10      0.000000407485
  11     -0.971572298149
  12      0.000000032392
  13     -0.000001597416
  14      1.400034008564
  15     -0.000000233092
  16      0.000001895136
  17     -0.372261731562
  18      0.000000175709
  19     -0.000000825645
  20     -0.016951644706
  21      0.000000073006
  22     -0.098556618591
  23      0.419837401204
  24      0.735371928294
  25     -0.311664978712
  26     -0.000000282744
  27      0.000000364211
  28      0.415085911498
  29      0.000001187908
  30     -0.000001979987
  31     -0.060628984620
  32     -0.000000217558
  33      0.000000220617
  34     -0.001788444889
  35     -0.000000099039
  36      0.060322440167
  37     -0.242551188112
  38      0.027693126026
  39     -0.674468634062
  40      0.000001484056
  41     -0.000000964448
  42      0.396725645399
  43     -0.000002068693
  44      0.000001983035
  45      0.050847464748
  46      0.000000079517
  47     -0.000000093601
  48     -0.002446550067
  49     -0.000000312532
 Ene=   0.92978752423009E+00
 Spin= Alpha
 Occup=    0.000000
   1      0.000000002078
   2     -0.000000012089
   3     -0.000000045641
   4      0.000000424874
   5      0.000000081306
   6     -0.000053325880
   7     -0.003100577056
   8     -0.000000128756
   9      0.000115055027
  10      0.007444374793
  11      0.000000136868
  12     -0.000188095608
  13     -0.013696775967
  14     -0.000000369372
  15      0.000203112513
  16      0.015488978360
  17      0.000000001296
  18     -0.000071692048
  19     -0.006039904589
  20      0.000000003933
  21     -0.000000171127
  22     -0.000000009385
  23      0.000000124471
  24     -0.000000025490
  25     -0.000000167963
  26      0.000036641890
  27      0.002963639998
  28     -0.000000448207
  29     -0.000195214181
  30     -0.015898098963
  31     -0.000000042905
  32      0.000020822439
  33      0.001836672652
  34     -0.000000036617
  35     -0.000000047728
  36     -0.000000003325
  37      0.000000069354
  38     -0.000000523774
  39     -0.000000035444
  40     -0.000109363805
  41     -0.009073689654
  42     -0.000000240788
  43      0.000205502033
  44      0.017035034694
  45      0.000000035213
  46     -0.000010421321
  47     -0.000825221230
  48     -0.000000004491
  49     -0.000000015471
 Ene=   0.10609744484663E+01
 Spin= Alpha
 Occup=    0.000000
   1     -0.012830672176
   2      0.098881160723
   3     -0.290464029524
   4     -4.421224715113
   5      0.000278605502
   6     -0.000000249009
   7      0.000000050480
   8     -0.013471542677
   9      0.000000352003
  10     -0.000000274678
  11      0.064682800264
  12     -0.000000363557
  13      0.000000747291
  14      2.663071564074
  15      0.000000398107
  16     -0.000000677440
  17     -0.536539429128
  18     -0.000000193396
  19      0.000000187268
  20     -0.010746037120
  21     -0.000000686017
  22      0.109461390864
  23     -1.666239372427
  24     -2.898752758509
  25      0.358101464776
  26      0.000000142691
  27     -0.000000076493
  28      8.670663739268
  29     -0.000000708494
  30      0.000000479268
  31     -0.169862789010
  32      0.000000162170
  33     -0.000000014871
  34      0.000527583229
  35      0.000000067860
  36      0.190758551371
  37     -1.818069287616
  38     10.834981272987
  39      0.091345439351
  40     -0.000000792137
  41      0.000000192356
  42      3.545910127539
  43      0.000001128971
  44     -0.000000459813
  45     -0.056942834108
  46     -0.000000060555
  47      0.000000022089
  48      0.002401289717
  49      0.000000345893
 Ene=   0.10697904331080E+01
 Spin= Alpha
 Occup=    0.000000
   1     -0.000000001384
   2      0.000000010684
   3     -0.000000060869
   4      0.000000147323
   5      0.000000056815
   6     -0.000014206936
   7      0.000130259339
   8     -0.000000111884
   9      0.000023578314
  10     -0.000222256849
  11      0.000000156436
  12     -0.000024286822
  13      0.000243103249
  14     -0.000000179788
  15      0.000017788596
  16     -0.000184137574
  17      0.000000018083
  18      0.000000730428
  19     -0.000001283024
  20     -0.000000000075
  21      0.000000009349
  22      0.000000001432
  23     -0.000000018886
  24     -0.000000177091
  25      0.000000057371
  26     -0.000006933681
  27      0.000060765159
  28     -0.000000037738
  29     -0.000004101533
  30      0.000055621608
  31     -0.000000013030
  32      0.000001209513
  33     -0.000012719185
  34      0.000000002479
  35      0.000000002929
  36     -0.000000006128
  37      0.000000021183
  38      0.000000062283
  39      0.000000045934
  40     -0.000016503648
  41      0.000165412831
  42      0.000000016216
  43      0.000019079369
  44     -0.000196748750
  45     -0.000000004948
  46     -0.000004995739
  47      0.000045874450
  48      0.000000000312
  49      0.000000001753
 Ene=   0.12599387234346E+01
 Spin= Alpha
 Occup=    0.000000
   1      0.000137320574
   2     -0.012262976539
   3      0.662831335464
   4     -2.432333574769
   5     -0.038899947239
   6     -0.000000028973
   7      0.000000077920
   8      0.033698347165
   9      0.000000041151
  10     -0.000000092134
  11     -0.158960950105
  12     -0.000000018398
  13      0.000000043518
  14      1.779763686889
  15     -0.000000015971
  16     -0.000000013324
  17     -1.036419664835
  18      0.000000018384