[Molden Format]
[Title]
generated by TRESC, imaginary part2 of MOs of job HO-Fe-O
 
[Atoms] AU
Fe   1  26   -1.9433967606    5.6835529785    2.5820970979
 O   2   8    2.2933664906   -1.5636606629  -10.8470369664
 O   3   8   -3.0932515093    7.5938922267    6.2367166353
 H   4   1    2.6036718967   -3.2935041939  -11.7280080473
[GTO]
  1 0
 s  6 1.0
    60923.6406430000        0.0045980778
     9147.8893982000        0.0193220084
     2081.3505927000        0.0775531983
      587.5597706700        0.2480208186
      191.0904399000        0.4675986791
       65.7327301100        0.3373548125
 s  1 1.0
      127.2589192800        1.0000000000
 s  1 1.0
       14.8309130100        1.0000000000
 s  1 1.0
        6.0653307400        1.0000000000
 s  1 1.0
       10.4499437100        1.0000000000
 s  1 1.0
        1.7245228000        1.0000000000
 s  1 1.0
        0.7177217700        1.0000000000
 s  1 1.0
        0.0914498300        1.0000000000
 s  1 1.0
        0.0337066900        1.0000000000
 p  5 1.0
      773.4375099500        0.0106099056
      182.1514971400        0.0713199466
       57.5472727600        0.2648513978
       20.6149889400        0.5090783315
        7.6348557900        0.3293226861
 p  1 1.0
        3.8719328000        1.0000000000
 p  1 1.0
        1.4924724100        1.0000000000
 p  1 1.0
        0.5606128500        1.0000000000
 d  4 1.0
       38.9681334200        0.0334987321
       10.8000670800        0.1771399682
        3.6136458000        0.4404450273
        1.2129967900        0.5720563253
 d  1 1.0
        0.3652439300        1.0000000000
 p  1 1.0
        0.1349150000        1.0000000000
 f  1 1.0
        1.5980000000        1.0000000000
 
  2 0
 s  5 1.0
     2266.1767785000        0.0060711540
      340.8701019100        0.0417308970
       77.3631351700        0.1850777598
       21.4796449400        0.4668774046
        6.6589433100        0.4435718061
 s  1 1.0
        0.8097597600        1.0000000000
 s  1 1.0
        0.2553077200        1.0000000000
 p  3 1.0
       17.7215043200        0.0628680198
        3.8635505400        0.3334973703
        1.0480920900        0.7412421661
 p  1 1.0
        0.2764154400        1.0000000000
 d  1 1.0
        1.2000000000        1.0000000000
 
  3 0
 s  5 1.0
     2266.1767785000        0.0060711540
      340.8701019100        0.0417308970
       77.3631351700        0.1850777598
       21.4796449400        0.4668774046
        6.6589433100        0.4435718061
 s  1 1.0
        0.8097597600        1.0000000000
 s  1 1.0
        0.2553077200        1.0000000000
 p  3 1.0
       17.7215043200        0.0628680198
        3.8635505400        0.3334973703
        1.0480920900        0.7412421661
 p  1 1.0
        0.2764154400        1.0000000000
 d  1 1.0
        1.2000000000        1.0000000000
 
  4 0
 s  3 1.0
       13.0107010000        0.0391282527
        1.9622572000        0.2855840539
        0.4445379600        0.7689908602
 s  1 1.0
        0.1219496200        1.0000000000
 p  1 1.0
        0.8000000000        1.0000000000
 
[5D]
[7F]
[9G]
[MO]
 Ene=   0.32726043244135E+00
 Spin= Alpha
 Occup=    0.000000
   1     -0.000002588608
   2     -0.000001245707
   3     -0.000018012973
   4     -0.000062884634
   5      0.000069929201
   6      0.000117874911
   7     -0.000351640287
   8      0.002134797603
   9     -0.002489522235
  10     -0.000017829532
  11     -0.000001212100
  12     -0.000469141376
  13      0.000027837760
  14     -0.000014214916
  15      0.000346548264
  16      0.000009038331
  17      0.000099909167
  18      0.001975562709
  19      0.000088522326
  20     -0.000308175409
  21     -0.002700297173
  22      0.000343295378
  23     -0.002937119936
  24      0.000776886745
  25     -0.001631498700
  26      0.004601138995
  27     -0.001982418551
  28      0.003679939722
  29     -0.000471116344
  30      0.001978438380
  31     -0.007263375672
  32     -0.000641081818
  33      0.000989775520
  34      0.000163786062
  35      0.000056995725
  36     -0.000004501181
  37     -0.000001961795
  38      0.000013332979
  39      0.000042381073
  40     -0.000022485048
  41     -0.000007613968
  42     -0.000006006899
  43      0.000029603616
  44     -0.000027206483
  45     -0.000004586138
  46      0.000009610157
  47      0.000014096085
  48      0.000006167162
  49     -0.000018038588
  50     -0.000018576312
  51      0.000000135489
  52      0.000000133372
  53     -0.000000641541
  54      0.000000576915
  55      0.000000223663
  56      0.001467680397
  57     -0.007845385659
  58      0.008211623169
  59     -0.002405319699
  60      0.003230704147
  61     -0.007669268033
  62      0.003203707610
  63     -0.004340052439
  64      0.009239624266
  65     -0.000081560010
  66      0.000069845168
  67     -0.000081969094
  68      0.000023714231
  69     -0.000014924991
  70     -0.000014572126
  71      0.000010110641
  72      0.000000484602
  73     -0.000002186969
  74     -0.000001388888
 Ene=   0.37840755710184E+00
 Spin= Alpha
 Occup=    0.000000
   1     -0.000072043639
   2     -0.000032750108
   3      0.000426664775
   4      0.000657386002
   5     -0.000383222876
   6     -0.001832734543
   7      0.001092869426
   8      0.003097695003
   9     -0.003922823737
  10      0.000070876720
  11     -0.000120381795
  12     -0.000228741762
  13     -0.000051611505
  14      0.000089194137
  15      0.000168566883
  16     -0.000316245718
  17      0.000535329309
  18      0.001018492698
  19      0.000471453209
  20     -0.000800368333
  21     -0.001522367086
  22      0.000311451225
  23     -0.000200740221
  24      0.000355093524
  25     -0.000064846098
  26     -0.000106909852
  27     -0.000421963030
  28      0.000269288880
  29     -0.000484411921
  30      0.000090445001
  31      0.000144347796
  32     -0.000178198745
  33      0.000295820232
  34      0.000569060033
  35     -0.000001622034
  36      0.000002555205
  37     -0.000003855901
  38      0.000000938797
  39      0.000002222805
  40     -0.000000569304
  41     -0.000000106219
  42      0.226091733181
  43     -1.145914118698
  44      1.119550874896
  45      0.101044436896
  46     -0.418334577984
  47     -0.307465812167
  48     -0.146567314097
  49      0.663222968849
  50      0.438291626545
  51     -0.005103648196
  52     -0.002884685969
  53      0.016323526395
  54     -0.015935640131
  55     -0.005793234699
  56      0.000715370795
  57     -0.003879748813
  58      0.004215029571
  59      0.000582216864
  60     -0.001008406286
  61     -0.001896606689
  62     -0.000722738800
  63      0.001255397557
  64      0.002358590436
  65     -0.000026515470
  66      0.000018090866
  67     -0.000029228767
  68      0.000004631763
  69      0.000009366604
  70      0.385313418528
  71     -0.314510394596
  72     -0.013060558526
  73      0.061006026365
  74      0.039019809008
 Ene=   0.38426223343927E+00
 Spin= Alpha
 Occup=    0.000000
   1      0.000000261941
   2     -0.000000199298
   3     -0.000002488481
   4     -0.000003863400
   5      0.000004552375
   6      0.000008947740
   7     -0.000018501232
   8      0.000075384896
   9     -0.000068500322
  10      0.002036167852
  11      0.000017401841
  12      0.000620786611
  13     -0.001640098683
  14     -0.000022298277
  15     -0.000508114567
  16     -0.008098696009
  17     -0.000063019643
  18     -0.002457955434
  19      0.010381935213
  20      0.000102283375
  21      0.003158946165
  22     -0.012789141941
  23     -0.022016341249
  24     -0.004591299292
  25      0.007032218214
  26     -0.013130540689
  27      0.022347910956
  28      0.038233562716
  29      0.007813438945
  30     -0.012526907358
  31      0.022628439664
  32      0.005046495360
  33      0.000038772848
  34      0.001592438066
  35     -0.000306363214
  36     -0.000294540091
  37     -0.000186313821
  38      0.000245950141
  39     -0.000334579673
  40      0.000073779420
  41      0.000137838563
  42      0.000001697987
  43     -0.000008635317
  44      0.000008504798
  45      0.000000429410
  46     -0.000003368705
  47     -0.000001831799
  48     -0.000000734514
  49      0.000005146801
  50      0.000002755229
  51     -0.000000035883
  52     -0.000000021450
  53      0.000000117323
  54     -0.000000112254
  55     -0.000000043191
  56      0.000027779130
  57     -0.000152610063
  58      0.000164052336
  59      0.048113807611
  60      0.000355298209
  61      0.014760541008
  62     -0.063619289304
  63     -0.000491468761
  64     -0.019553559327
  65     -0.000513653241
  66     -0.000850836862
  67     -0.000163447186
  68      0.000309145444
  69     -0.000485381505
  70      0.000002754699
  71     -0.000002330813
  72     -0.000000062718
  73      0.000000458664
  74      0.000000247253
 Ene=   0.38525894957477E+00
 Spin= Alpha
 Occup=    0.000000
   1     -0.000002461822
   2     -0.000000798275
   3      0.000033468497
   4      0.000072485297
   5     -0.000061279321
   6     -0.000179712881
   7      0.000241376637
   8     -0.000343652885
   9      0.000252667647
  10     -0.000071870563
  11     -0.004432340661
  12      0.002319837881
  13      0.000055890563
  14      0.004483515364
  15     -0.002302173502
  16      0.000296692101
  17      0.017376714423
  18     -0.009144125779
  19     -0.000398424031
  20     -0.025790278423
  21      0.013486648977
  22     -0.043108298311
  23      0.008625171166
  24      0.034721256745
  25     -0.025353125031
  26     -0.014610175549
  27      0.073083850507
  28     -0.014597108435
  29     -0.059028942389
  30      0.043038119826
  31      0.024835833921
  32     -0.000091167719
  33     -0.005140327890
  34      0.002591169397
  35     -0.000929760619
  36      0.000340072027
  37      0.000190336203
  38     -0.000606604541
  39     -0.000275547718
  40      0.000270844475
  41     -0.000148508062
  42     -0.000012184602
  43      0.000062354150
  44     -0.000062544390
  45     -0.000007956888
  46      0.000009216806
  47      0.000038565916
  48      0.000010237883
  49     -0.000018965352
  50     -0.000046435504
  51      0.000000418166
  52      0.000000072165
  53     -0.000000553366
  54      0.000000822801
  55      0.000000246544
  56     -0.000053314055
  57      0.000296705116
  58     -0.000321088701
  59     -0.001463789395
  60     -0.085122961054
  61      0.044463086958
  62      0.001920948974
  63      0.113319273285
  64     -0.059079884630
  65     -0.001655399443
  66      0.000324745214
  67      0.001371529073
  68     -0.000983098311
  69     -0.000575523747
  70     -0.000017902863
  71      0.000017426849
  72      0.000000998354
  73     -0.000001703504
  74     -0.000004633173
 Ene=   0.38991513845697E+00
 Spin= Alpha
 Occup=    0.000000
   1      0.000010281324
   2      0.000005654732
   3     -0.000159682628
   4     -0.000359513625
   5      0.000299795670
   6      0.000876399882
   7     -0.001186747626
   8      0.001767315315
   9     -0.001304116498
  10      0.001719495569
  11      0.018681119254
  12     -0.009352382498
  13     -0.001367410167
  14     -0.015510087415
  15      0.007541167120
  16     -0.006921957164
  17     -0.074384669560
  18      0.037501762835
  19      0.008994179310
  20      0.097610651536
  21     -0.048838384871
  22      0.203140482406
  23     -0.058343896763
  24     -0.174077849376
  25      0.130397704331
  26      0.062697616619
  27     -0.343126068511
  28      0.098432457695
  29      0.294931147696
  30     -0.220624368842
  31     -0.106312873769
  32      0.003673851993
  33      0.042060900533
  34     -0.020493990159
  35      0.004443665006
  36     -0.001897792090
  37     -0.001066486390
  38      0.003219238196
  39      0.001168325001
  40     -0.001275353098
  41      0.000819321908
  42      0.000015832587
  43     -0.000080686597
  44      0.000079797751
  45      0.000001796167
  46     -0.000038560983
  47     -0.000003035633
  48     -0.000004496739
  49      0.000055400602
  50      0.000010587921
  51     -0.000000243992
  52     -0.000000215927
  53      0.000001142112
  54     -0.000000963225
  55     -0.000000396718
  56      0.000280269667
  57     -0.001567374827
  58      0.001709240375
  59      0.038715584550
  60      0.423289976583
  61     -0.211457757712
  62     -0.051300371745
  63     -0.562873097909
  64      0.280568249823
  65      0.007994931956
  66     -0.002269227942
  67     -0.007069917551
  68      0.005196647499
  69      0.002551778105
  70      0.000024889397
  71     -0.000021275740
  72     -0.000000349001
  73      0.000004839379
  74      0.000000786142
 Ene=   0.39115977260941E+00
 Spin= Alpha
 Occup=    0.000000
   1     -0.000001989401
   2     -0.000000997639
   3     -0.000007083162
   4     -0.000027548796
   5      0.000036600853
   6      0.000029898145
   7     -0.000173289879
   8      0.001110606755
   9     -0.000953586299
  10      0.019492261351
  11     -0.002541726632
  12      0.007305817392
  13     -0.015595095400
  14      0.001957177159
  15     -0.005999856742
  16     -0.077935540912
  17      0.010246260315
  18     -0.029021135139
  19      0.100401833521
  20     -0.013064419932
  21      0.037612455809
  22     -0.164239681359
  23     -0.220014527828
  24     -0.017726637930
  25      0.061693929104
  26     -0.143474589036
  27      0.277812819708
  28      0.371331421756
  29      0.030212560862
  30     -0.104244692481
  31      0.241253815157
  32      0.045941171377
  33     -0.005741968519
  34      0.017950482274
  35     -0.003624391857
  36     -0.002570054490
  37     -0.001645196305
  38      0.001927364387
  39     -0.003406094110
  40      0.000889951843
  41      0.001224422443
  42      0.000011098273
  43     -0.000056653633
  44      0.000056286335
  45      0.000001017117
  46     -0.000025205095
  47     -0.000005269338
  48     -0.000002832216
  49      0.000036493669
  50      0.000010661114
  51     -0.000000191451
  52     -0.000000141544
  53      0.000000750834
  54     -0.000000666422
  55     -0.000000273149
  56      0.000369053627
  57     -0.002022888439
  58      0.002144571028
  59      0.449156504847
  60     -0.058536792392
  61      0.168925834253
  62     -0.596604937529
  63      0.077507392019
  64     -0.224945508456
  65     -0.006703595853
  66     -0.008788526857
  67     -0.000786727426
  68      0.002500646400
  69     -0.005596208912
  70      0.000017000521
  71     -0.000014993347
  72     -0.000000218012
  73      0.000003170454
  74      0.000000913395
 Ene=   0.40852791198896E+00
 Spin= Alpha
 Occup=    0.000000
   1      0.000021457917
   2      0.000009787795
   3     -0.000130462785
   4     -0.000204641911
   5      0.000122447050
   6      0.000565773620
   7     -0.000364656263
   8     -0.000761647644
   9      0.000991277612
  10     -0.000015692870
  11      0.000025956602
  12      0.000049861391
  13      0.000011594139
  14     -0.000019012546
  15     -0.000036591405
  16      0.000070496279
  17     -0.000116658228
  18     -0.000224052059
  19     -0.000106768596
  20      0.000176005863
  21      0.000338389114
  22     -0.000053259555
  23      0.000034616668
  24     -0.000057969496
  25      0.000009710486
  26      0.000017831899
  27      0.000071284030
  28     -0.000045986305
  29      0.000077202070
  30     -0.000012940026
  31     -0.000023599962
  32      0.000040904572
  33     -0.000066746083
  34     -0.000128488865
  35      0.000000301210
  36     -0.000000490775
  37      0.000000788709
  38     -0.000000220895
  39     -0.000000444270
  40      0.000000122961
  41      0.000000011829
  42      0.012593653526
  43     -0.060803169165
  44      0.047909730590
  45     -0.073598892889
  46     -0.366292280799
  47      0.604718826463
  48      0.074224748874
  49      0.412599135134
  50     -0.632025618956
  51      0.004791529286
  52     -0.001639642536
  53      0.005549523559
  54      0.002126688455
  55     -0.000630144310
  56     -0.000132486695
  57      0.000724610471
  58     -0.000804117895
  59     -0.000107823727
  60      0.000180941495
  61      0.000347297945
  62      0.000139312127
  63     -0.000233834780
  64     -0.000448937660
  65      0.000003308521
  66     -0.000002271067
  67      0.000003741603
  68     -0.000000616794
  69     -0.000001198298
  70      0.029808034037
  71     -0.005312922588
  72      0.008053818542
  73      0.045299761903
  74     -0.068850288683
 Ene=   0.40923605337146E+00
 Spin= Alpha
 Occup=    0.000000
   1     -0.000015965344
   2     -0.000007282877
   3      0.000097112556
   4      0.000152375980
   5     -0.000091212678
   6     -0.000421221071
   7      0.000271835747
   8      0.000564642269
   9     -0.000735274903
  10      0.000011588075
  11     -0.000019230593
  12     -0.000036901548
  13     -0.000008336085
  14      0.000014198293
  15      0.000027089978
  16     -0.000052132398
  17      0.000086413948
  18      0.000165850879
  19      0.000078105397
  20     -0.000130844310
  21     -0.000250600013
  22      0.000038897333
  23     -0.000027611521
  24      0.000041510327
  25     -0.000005903330
  26     -0.000013946045
  27     -0.000051943906
  28      0.000037404962
  29     -0.000054870713
  30      0.000007441043
  31      0.000018737518
  32     -0.000028879268
  33      0.000050160867
  34      0.000095283417
  35     -0.000000229153
  36      0.000000327082
  37     -0.000000604195
  38      0.000000200079
  39      0.000000305735
  40     -0.000000089048
  41      0.000000008634
  42     -0.014069649530
  43      0.069617546850
  44     -0.060766513653
  45     -0.152062066436
  46      0.291805615903
  47     -0.539019352630
  48      0.165163117019
  49     -0.329168068508
  50      0.563815691819
  51     -0.004315984513
  52      0.000424646038
  53     -0.005075126898
  54     -0.001238889460
  55     -0.001455664150
  56      0.000097668053
  57     -0.000534274836
  58      0.000593163664
  59      0.000083626931
  60     -0.000131403618
  61     -0.000255668778
  62     -0.000108308072
  63      0.000169895213
  64      0.000330785873
  65     -0.000002424989
  66      0.000001557267
  67     -0.000002780837
  68      0.000000506891
  69      0.000000836364
  70     -0.026711523430
  71      0.010266295378
  72      0.018119678384
  73     -0.036447919685
  74      0.061426326014
 Ene=   0.50573331212659E+00
 Spin= Alpha
 Occup=    0.000000
   1      0.000006103402
   2      0.000003509760
   3     -0.000119304102
   4     -0.000270931327
   5      0.000238570514
   6      0.000601660350
   7     -0.000963090906
   8      0.002556066262
   9     -0.001808065002
  10      0.000102267394
  11      0.000032018944
  12      0.000313822421
  13     -0.000049393522
  14     -0.000276796959
  15     -0.000976899568
  16     -0.000546734548
  17      0.000112307429
  18     -0.000779776795
  19      0.000886883472
  20      0.000455779600
  21      0.003281582004
  22      0.002551239592
  23     -0.000553562597
  24      0.001803399217
  25     -0.000404289046
  26      0.000130474596
  27     -0.002859038648
  28      0.000158432754
  29     -0.001619765502
  30      0.000416533066
  31     -0.000475804756
  32     -0.000850295088
  33      0.000094220928
  34     -0.001475414708
  35      0.000008772579
  36      0.000024572107
  37     -0.000023870237
  38      0.000006656712
  39      0.000029674304
  40     -0.000009439531
  41     -0.000005758300
  42      0.000003521276
  43     -0.000020121943
  44      0.000026584713
  45      0.000001347710
  46      0.000001235128
  47     -0.000004665539
  48     -0.000000806335
  49     -0.000005015625
  50      0.000003191914
  51     -0.000000083070
  52      0.000000096573
  53     -0.000000319691
  54      0.000000118598
  55      0.000000102786
  56      0.000263916366
  57     -0.001624745721
  58      0.002162904196
  59     -0.000110039701
  60     -0.001559012990
  61     -0.005202532746
  62      0.000501229537
  63      0.001433316750
  64      0.005628206358
  65     -0.000056342150
  66      0.000116629893
  67     -0.000130683205
  68      0.000017019201
  69      0.000072151809
  70     -0.000002957427
  71     -0.000007863703
  72     -0.000000100160
  73     -0.000001840952
  74      0.000000503251
 Ene=   0.50739046473450E+00
 Spin= Alpha
 Occup=    0.000000
   1      0.000000745976
   2      0.000000218980
   3     -0.000012504483
   4     -0.000027478521
   5      0.000024504941
   6      0.000061946101
   7     -0.000098740947
   8      0.000260348240
   9     -0.000183931767
  10      0.000002239035
  11      0.000201553122
  12     -0.000071940889
  13      0.000009374941
  14     -0.000375326770
  15      0.000083233300
  16     -0.000023447868
  17     -0.000772567716
  18      0.000331145543
  19      0.000012841179
  20      0.001926712642
  21     -0.000653929592
  22     -0.001100207480
  23      0.000121065016
  24      0.001967919211
  25      0.001212619997
  26      0.000811020509
  27      0.001577460945
  28     -0.000229903232
  29     -0.002464470568
  30     -0.001264405574
  31     -0.000876625658
  32     -0.000034616461
  33     -0.001260857303
  34      0.000521745651
  35     -0.000021356518
  36      0.000009470084
  37      0.000003402347
  38     -0.000011165482
  39     -0.000003171559
  40      0.000000686550
  41     -0.000001175462
  42      0.000000358497
  43     -0.000002052153
  44      0.000002722055
  45      0.000000134210
  46      0.000000084184
  47     -0.000000366861
  48     -0.000000076593
  49     -0.000000482837
  50      0.000000212037
  51     -0.000000006760
  52      0.000000009705
  53     -0.000000032107
  54      0.000000013747
  55      0.000000010936
  56      0.000026100866
  57     -0.000161411998
  58      0.000217257449
  59      0.000056324364
  60     -0.001796027814
  61      0.000348065221
  62     -0.000036138292
  63      0.002276564213
  64     -0.000567879666
  65     -0.000055665041
  66      0.000018879256
  67      0.000020490147
  68     -0.000041880308
  69     -0.000021095737
  70     -0.000000314254
  71     -0.000000808603
  72     -0.000000009482
  73     -0.000000184292
  74      0.000000035021
 Ene=   0.51581978889174E+00
 Spin= Alpha
 Occup=    0.000000
   1     -0.000000105681
   2     -0.000000048403
   3      0.000000672740
   4      0.000001087660
   5     -0.000000676951
   6     -0.000002980874
   7      0.000002168431
   8      0.000002390766
   9     -0.000003358363
  10      0.000000050909
  11     -0.000001758436
  12      0.000000681034
  13     -0.000000036118
  14      0.000002525919
  15     -0.000001123986
  16     -0.000000236323
  17      0.000007204866
  18     -0.000002679094
  19      0.000000367118
  20     -0.000015028633
  21      0.000006080905
  22      0.000001263416
  23     -0.000000252592
  24     -0.000000978623
  25      0.000000790178
  26      0.000000459021
  27     -0.000002096562
  28      0.000000409837
  29      0.000001662698
  30     -0.000001291774
  31     -0.000000755593
  32     -0.000000151730
  33      0.000008153233
  34     -0.000003474564
  35      0.000000046850
  36     -0.000000015987
  37     -0.000000008950
  38      0.000000039029
  39      0.000000020614
  40     -0.000000003293
  41      0.000000001828
  42      0.000000246451
  43     -0.000029754229
  44      0.000131295430
  45     -0.000010905982
  46      0.001504988170
  47     -0.002740036706
  48      0.000029202581
  49     -0.001560329953
  50      0.002599753985
  51     -0.000042127116
  52      0.000009450466
  53     -0.000043205768
  54     -0.000021811308
  55     -0.000003119010
  56      0.000000226746
  57     -0.000001257331
  58      0.000001435435
  59      0.000000202557
  60      0.000003340389
  61     -0.000002415229
  62     -0.000000314188
  63     -0.000004700383
  64      0.000003528564
  65      0.000000157643
  66     -0.000000032117
  67     -0.000000120257
  68      0.000000087788
  69      0.000000050951
  70     -0.000091441733
  71     -0.000085902364
  72      0.000005894503
  73     -0.000239695462
  74      0.000388750361
 Ene=   0.56774591381271E+00
 Spin= Alpha
 Occup=    0.000000
   1     -0.000035592037
   2     -0.000016364547
   3      0.000229103723
   4      0.000373317910
   5     -0.000233979988
   6     -0.001024149982
   7      0.000767169886
   8      0.000681221312
   9     -0.000973118092
  10      0.000020203887
  11     -0.000033978399
  12     -0.000065060296
  13     -0.000014374560
  14      0.000024466987
  15      0.000046707956
  16     -0.000095471416
  17      0.000160313311
  18      0.000307058011
  19      0.000152812475
  20     -0.000257330079
  21     -0.000492645636
  22     -0.000000822529
  23      0.000000608841
  24     -0.000001669305
  25      0.000000455059
  26      0.000000516456
  27      0.000015281889
  28     -0.000010312063
  29      0.000018221540
  30     -0.000003329959
  31     -0.000005709251
  32     -0.000074465371
  33      0.000125436072
  34      0.000240169837
  35     -0.000000553565
  36      0.000000855021
  37     -0.000001413574
  38      0.000000407216
  39      0.000000773101
  40     -0.000000212785
  41     -0.000000011243
  42     -0.195008160836
  43      1.263919000559
  44     -2.146879918912
  45      0.078507598902
  46     -0.416157783969
  47     -0.223594222563
  48     -0.221858975807
  49      1.212516443140
  50      0.630927000018
  51     -0.014819756297
  52     -0.009095467546
  53      0.050839032868
  54     -0.048308497336
  55     -0.017896782593
  56      0.000050705327
  57     -0.000278582324
  58      0.000307680271
  59      0.000048081213
  60     -0.000079160001
  61     -0.000152058992
  62     -0.000081681111
  63      0.000134594973
  64      0.000258395462
  65      0.000001250199
  66     -0.000000845874
  67      0.000001344083
  68     -0.000000209371
  69     -0.000000431076
  70      0.712826699571
  71      0.866215765276
  72     -0.040788031583
  73      0.222991136354
  74      0.115969979593
 Ene=   0.70477566130824E+00
 Spin= Alpha
 Occup=    0.000000
   1     -0.000441579929
   2     -0.000203190344
   3      0.002928901444
   4      0.004895124496
   5     -0.003119445422
   6     -0.013585721926
   7      0.011238400265
   8     -0.004484974300
   9      0.011170949675
  10     -0.009548558734
  11     -0.152544497283
  12      0.059837948534
  13      0.006740694157
  14      0.114059166887
  15     -0.043402421914
  16      0.045374571807
  17      0.723333362169
  18     -0.284017228478
  19     -0.072526150535
  20     -1.187965017785
  21      0.459634285749
  22      0.008333659767
  23     -0.000487070843
  24     -0.017149721548
  25      0.009539577987
  26      0.005911906858
  27     -0.015581459752
  28      0.000816789426
  29      0.032630147102
  30     -0.018063903659
  31     -0.011244733338
  32      0.029710100377
  33      0.542163195868
  34     -0.198026874280
  35      0.000414228311
  36     -0.000118274561
  37     -0.000262209645
  38      0.000651260161
  39      0.000428325407
  40      0.000209868587
  41     -0.000072926259
  42     -0.000000696524
  43     -0.000002057044
  44      0.000023726291
  45     -0.000006496065
  46      0.000017386558
  47      0.000019965466
  48      0.000011053083
  49     -0.000044927998
  50     -0.000032742084
  51      0.000002365679
  52     -0.000000342701
  53     -0.000000644805
  54      0.000003002909
  55      0.000000344920
  56     -0.002247481716
  57      0.017727941113
  58     -0.037365375888
  59      0.002853689722
  60      0.066566560853
  61     -0.021574769338
  62     -0.010962916853
  63     -0.120911115294
  64      0.059230751914
  65      0.007826484154
  66     -0.001910919600
  67     -0.008619580685
  68      0.005814582229
  69      0.003053154542
  70     -0.000021610557
  71     -0.000021560356
  72      0.000004251468
  73      0.000000217450
  74     -0.000014085269
 Ene=   0.71618762809371E+00
 Spin= Alpha
 Occup=    0.000000
   1      0.001306003378
   2      0.000601947106
   3     -0.008507010957
   4     -0.014086810210
   5      0.008832008564
   6      0.039487583877
   7     -0.031785197229
   8      0.008143155392
   9     -0.029671875724
  10      0.124061790516
  11     -0.042553369545
  12      0.107390261619
  13     -0.087146403729
  14      0.028987769608
  15     -0.077963240902
  16     -0.592997950036
  17      0.203163320342
  18     -0.514216105822
  19      0.955829591331
  20     -0.321515410009
  21      0.846584987419
  22      0.028028250376
  23      0.001249695350
  24      0.014535487690
  25     -0.003884175134
  26      0.003864769162
  27     -0.054277392678
  28     -0.001583165745
  29     -0.028860295760
  30      0.007600070994
  31     -0.006850110907
  32     -0.419362849585
  33      0.128157468997
  34     -0.410993475104
  35      0.000759499012
  36     -0.000103209906
  37      0.000820641083
  38     -0.000055408605
  39     -0.000143097313
  40      0.000037576299
  41     -0.000454991824
  42      0.000002305322
  43      0.000001919518
  44     -0.000055406112
  45      0.000016447756
  46     -0.000044159009
  47     -0.000050473711
  48     -0.000027590560
  49      0.000113730528
  50      0.000081539280
  51     -0.000006578957
  52      0.000001086295
  53      0.000001196077
  54     -0.000008003758
  55     -0.000000760582
  56      0.007020118190
  57     -0.054079588413
  58      0.110100446544
  59     -0.048743242570
  60      0.014261589799
  61     -0.049741230317
  62      0.110357042730
  63     -0.052115634801
  64      0.051775607572
  65      0.011249642982
  66      0.006294726317
  67      0.001021936894
  68     -0.001191180117
  69      0.005466490415
  70      0.000053587598
  71      0.000053828097
  72     -0.000011650865
  73     -0.000002884795
  74      0.000038796265
 Ene=   0.72996627602567E+00
 Spin= Alpha
 Occup=    0.000000
   1      0.007512284920
   2      0.003445614681
   3     -0.047550937180