[Molden Format]
[Title]
generated by TRESC, real part2 of MOs of job HO-Fe-O
 
[Atoms] AU
Fe   1  26   -1.9433967606    5.6835529785    2.5820970979
 O   2   8    2.2933664906   -1.5636606629  -10.8470369664
 O   3   8   -3.0932515093    7.5938922267    6.2367166353
 H   4   1    2.6036718967   -3.2935041939  -11.7280080473
[GTO]
  1 0
 s  6 1.0
    60923.6406430000        0.0045980778
     9147.8893982000        0.0193220084
     2081.3505927000        0.0775531983
      587.5597706700        0.2480208186
      191.0904399000        0.4675986791
       65.7327301100        0.3373548125
 s  1 1.0
      127.2589192800        1.0000000000
 s  1 1.0
       14.8309130100        1.0000000000
 s  1 1.0
        6.0653307400        1.0000000000
 s  1 1.0
       10.4499437100        1.0000000000
 s  1 1.0
        1.7245228000        1.0000000000
 s  1 1.0
        0.7177217700        1.0000000000
 s  1 1.0
        0.0914498300        1.0000000000
 s  1 1.0
        0.0337066900        1.0000000000
 p  5 1.0
      773.4375099500        0.0106099056
      182.1514971400        0.0713199466
       57.5472727600        0.2648513978
       20.6149889400        0.5090783315
        7.6348557900        0.3293226861
 p  1 1.0
        3.8719328000        1.0000000000
 p  1 1.0
        1.4924724100        1.0000000000
 p  1 1.0
        0.5606128500        1.0000000000
 d  4 1.0
       38.9681334200        0.0334987321
       10.8000670800        0.1771399682
        3.6136458000        0.4404450273
        1.2129967900        0.5720563253
 d  1 1.0
        0.3652439300        1.0000000000
 p  1 1.0
        0.1349150000        1.0000000000
 f  1 1.0
        1.5980000000        1.0000000000
 
  2 0
 s  5 1.0
     2266.1767785000        0.0060711540
      340.8701019100        0.0417308970
       77.3631351700        0.1850777598
       21.4796449400        0.4668774046
        6.6589433100        0.4435718061
 s  1 1.0
        0.8097597600        1.0000000000
 s  1 1.0
        0.2553077200        1.0000000000
 p  3 1.0
       17.7215043200        0.0628680198
        3.8635505400        0.3334973703
        1.0480920900        0.7412421661
 p  1 1.0
        0.2764154400        1.0000000000
 d  1 1.0
        1.2000000000        1.0000000000
 
  3 0
 s  5 1.0
     2266.1767785000        0.0060711540
      340.8701019100        0.0417308970
       77.3631351700        0.1850777598
       21.4796449400        0.4668774046
        6.6589433100        0.4435718061
 s  1 1.0
        0.8097597600        1.0000000000
 s  1 1.0
        0.2553077200        1.0000000000
 p  3 1.0
       17.7215043200        0.0628680198
        3.8635505400        0.3334973703
        1.0480920900        0.7412421661
 p  1 1.0
        0.2764154400        1.0000000000
 d  1 1.0
        1.2000000000        1.0000000000
 
  4 0
 s  3 1.0
       13.0107010000        0.0391282527
        1.9622572000        0.2855840539
        0.4445379600        0.7689908602
 s  1 1.0
        0.1219496200        1.0000000000
 p  1 1.0
        0.8000000000        1.0000000000
 
[5D]
[7F]
[9G]
[MO]
 Ene=   0.32726043244135E+00
 Spin= Alpha
 Occup=    0.000000
   1     -0.000001364288
   2     -0.000000401520
   3     -0.000006027243
   4     -0.000024396569
   5      0.000027487887
   6      0.000042837068
   7     -0.000138670592
   8      0.000832939698
   9     -0.000936895320
  10      0.000228306819
  11      0.000087798455
  12     -0.000152731947
  13     -0.000186616059
  14     -0.000077521170
  15      0.000110050206
  16     -0.000893561056
  17     -0.000296379143
  18      0.000657686107
  19      0.001130141208
  20      0.000277104347
  21     -0.000922826156
  22      0.001010671983
  23      0.003271287833
  24      0.000854787452
  25      0.004739458281
  26     -0.005364493017
  27     -0.001695268790
  28     -0.003418126383
  29     -0.000300644290
  30     -0.007602494886
  31      0.007902605047
  32      0.000562225357
  33      0.000721363275
  34      0.000196587750
  35      0.000013649838
  36     -0.000025335232
  37     -0.000022441854
  38      0.000053375091
  39     -0.000023831161
  40     -0.000001397086
  41      0.000028503477
  42     -0.000002260767
  43      0.000011142980
  44     -0.000010244958
  45     -0.000002003589
  46      0.000003513724
  47      0.000005402693
  48      0.000002641384
  49     -0.000006664093
  50     -0.000007100556
  51      0.000000051561
  52      0.000000049350
  53     -0.000000240622
  54      0.000000217841
  55      0.000000082437
  56      0.000539253019
  57     -0.002879709433
  58      0.002999828230
  59      0.005868704070
  60      0.003831612046
  61     -0.002165136136
  62     -0.007391023785
  63     -0.004940197592
  64      0.002568405780
  65     -0.000039953710
  66     -0.000001932237
  67     -0.000034413270
  68     -0.000036659984
  69      0.000053303414
  70     -0.000005478319
  71      0.000003808090
  72      0.000000211565
  73     -0.000000811948
  74     -0.000000533096
 Ene=   0.37840755710184E+00
 Spin= Alpha
 Occup=    0.000000
   1     -0.000017827370
   2     -0.000008104014
   3      0.000105573633
   4      0.000162656373
   5     -0.000094815613
   6     -0.000453476583
   7      0.000270375931
   8      0.000766597473
   9     -0.000970772364
  10      0.000022905772
  11     -0.000026594289
  12     -0.000056583490
  13     -0.000019628608
  14      0.000017985494
  15      0.000041689543
  16     -0.000098955613
  17      0.000120149101
  18      0.000251955261
  19      0.000152962657
  20     -0.000176433987
  21     -0.000376595921
  22      0.000076791961
  23     -0.000093301151
  24      0.000061754283
  25      0.000011454033
  26     -0.000041309654
  27     -0.000103949597
  28      0.000141012417
  29     -0.000075375287
  30     -0.000024446171
  31      0.000060992894
  32     -0.000046688846
  33      0.000071628540
  34      0.000140809868
  35     -0.000000402910
  36      0.000000000068
  37     -0.000001341984
  38      0.000000936505
  39      0.000000150009
  40     -0.000000179208
  41      0.000000253448
  42      0.055490757600
  43     -0.281275714782
  44      0.274898011852
  45      0.036213606516
  46     -0.100392206209
  47     -0.075738095514
  48     -0.048492804640
  49      0.160156617970
  50      0.107812466653
  51     -0.001253369822
  52     -0.000659485148
  53      0.004006402534
  54     -0.003940013080
  55     -0.001329187964
  56      0.000177011085
  57     -0.000960006515
  58      0.001042976179
  59      0.000220370144
  60     -0.000204131948
  61     -0.000468947798
  62     -0.000280367633
  63      0.000250250449
  64      0.000583153825
  65     -0.000006572256
  66      0.000002861985
  67     -0.000008195424
  68      0.000002154592
  69      0.000001778623
  70      0.094451760935
  71     -0.077262031097
  72     -0.004478094727
  73      0.014711443243
  74      0.009603592702
 Ene=   0.38426223343927E+00
 Spin= Alpha
 Occup=    0.000000
   1     -0.000001137065
   2     -0.000000203682
   3      0.000006716071
   4      0.000010646184
   5     -0.000006839223
   6     -0.000035404814
   7      0.000021883681
   8      0.000136427511
   9     -0.000132064656
  10     -0.000341440724
  11     -0.001557689074
  12      0.000681896026
  13      0.000282845783
  14      0.001238033746
  15     -0.000563778018
  16      0.001350368040
  17      0.006206744187
  18     -0.002689363532
  19     -0.001746716695
  20     -0.007910264301
  21      0.003455914703
  22     -0.013050739544
  23      0.006613775443
  24      0.011135124918
  25     -0.015914166651
  26     -0.006939816811
  27      0.023349903811
  28     -0.011580358238
  29     -0.020598145993
  30      0.025634848407
  31      0.010705551249
  32     -0.000868408145
  33     -0.003875726645
  34      0.001828217305
  35     -0.000338362783
  36      0.000190246959
  37      0.000097573201
  38     -0.000303531121
  39     -0.000068950898
  40      0.000108126673
  41     -0.000087065073
  42      0.000003214544
  43     -0.000016347108
  44      0.000016097909
  45      0.000001206403
  46     -0.000006364688
  47     -0.000003358116
  48     -0.000001821617
  49      0.000009734618
  50      0.000005100181
  51     -0.000000067298
  52     -0.000000039176
  53      0.000000223569
  54     -0.000000213661
  55     -0.000000078631
  56      0.000065356796
  57     -0.000355113450
  58      0.000374362291
  59     -0.008063185996
  60     -0.036966045457
  61      0.016312888874
  62      0.010686777649
  63      0.048838199141
  64     -0.021640016801
  65     -0.000585992274
  66      0.000271094169
  67      0.000565606654
  68     -0.000387431246
  69     -0.000114715859
  70      0.000005220690
  71     -0.000004411437
  72     -0.000000162925
  73      0.000000865542
  74      0.000000455658
 Ene=   0.38525894957477E+00
 Spin= Alpha
 Occup=    0.000000
   1     -0.000000159082
   2      0.000000147738
   3      0.000006119183
   4      0.000014583576
   5     -0.000014376674
   6     -0.000032069400
   7      0.000060177454
   8     -0.000185590847
   9      0.000149284128
  10      0.004464792825
  11      0.000069882472
  12      0.001389819851
  13     -0.004508045246
  14     -0.000054041233
  15     -0.001379805619
  16     -0.017515725028
  17     -0.000289240453
  18     -0.005479023936
  19      0.025985017827
  20      0.000389061146
  21      0.008085490572
  22     -0.025694132951
  23     -0.043519364224
  24     -0.008672460686
  25      0.015339530440
  26     -0.024995174392
  27      0.043552050368
  28      0.073880460591
  29      0.014613242902
  30     -0.026103834599
  31      0.042448266279
  32      0.005148899080
  33      0.000068656422
  34      0.001511071957
  35     -0.000551108462
  36     -0.000535970528
  37     -0.000334765400
  38      0.000454037936
  39     -0.000610182029
  40      0.000128701572
  41      0.000245195372
  42     -0.000003387242
  43      0.000017248263
  44     -0.000017047438
  45      0.000027272546
  46      0.000007077416
  47      0.000012738616
  48     -0.000029131572
  49     -0.000010572955
  50     -0.000015337041
  51      0.000000143823
  52      0.000000150760
  53     -0.000000142231
  54      0.000000168327
  55      0.000000344884
  56     -0.000050901571
  57      0.000277010305
  58     -0.000290502948
  59      0.085676824963
  60      0.001420495683
  61      0.026619337534
  62     -0.114037405144
  63     -0.001857423806
  64     -0.035359378434
  65     -0.000987172223
  66     -0.001696036363
  67     -0.000316699190
  68      0.000603797636
  69     -0.000971240167
  70     -0.000005391920
  71      0.000004665796
  72     -0.000003070782
  73     -0.000000950167
  74     -0.000001527438
 Ene=   0.38991513845697E+00
 Spin= Alpha
 Occup=    0.000000
   1     -0.000001113347
   2      0.000000135827
   3     -0.000020329995
   4     -0.000060702174
   5      0.000059788797
   6      0.000117109250
   7     -0.000258336981
   8      0.000977630878
   9     -0.000793758598
  10     -0.019340426042
  11     -0.001574617339
  12     -0.005378525014
  13      0.016028892283
  14      0.001244203806
  15      0.004328317918
  16      0.077068676959
  17      0.006349859426
  18      0.021582885045
  19     -0.101140489501
  20     -0.008246035549
  21     -0.028113013745
  22      0.116042233860
  23      0.222895015526
  24      0.055249045024
  25     -0.086087260192
  26      0.121511223883
  27     -0.195932544507
  28     -0.377100326276
  29     -0.092888303497
  30      0.145858747993
  31     -0.205699217708
  32     -0.043286190427
  33     -0.003231360932
  34     -0.011532751722
  35      0.002526440150
  36      0.002874435422
  37      0.001781811192
  38     -0.002520638055
  39      0.003023502189
  40     -0.000582954747
  41     -0.001338509066
  42      0.000010007154
  43     -0.000051046028
  44      0.000050627879
  45      0.000010492134
  46     -0.000021794410
  47     -0.000003398070
  48     -0.000012936569
  49      0.000032020754
  50      0.000008176095
  51     -0.000000161280
  52     -0.000000090322
  53      0.000000706192
  54     -0.000000633364
  55     -0.000000163785
  56      0.000276088910
  57     -0.001507275573
  58      0.001587660439
  59     -0.437552648805
  60     -0.035393418853
  61     -0.121467652118
  62      0.581722177640
  63      0.046845805937
  64      0.161084559902
  65      0.004563338659
  66      0.008930458854
  67      0.002096437394
  68     -0.003460762026
  69      0.004853811272
  70      0.000015518471
  71     -0.000013552643
  72     -0.000001285581
  73      0.000002774471
  74      0.000000659385
 Ene=   0.39115977260941E+00
 Spin= Alpha
 Occup=    0.000000
   1     -0.000010730776
   2     -0.000004902205
   3      0.000080610633
   4      0.000151018582
   5     -0.000100295822
   6     -0.000445075800
   7      0.000341149179
   8      0.001107060648
   9     -0.001042630926
  10     -0.005024493017
  11     -0.017831321828
  12      0.007526054625
  13      0.004083388898
  14      0.014194913457
  15     -0.006190358612
  16      0.020014504977
  17      0.071357895895
  18     -0.029877260229
  19     -0.025880845598
  20     -0.091771871919
  21      0.038710641501
  22     -0.170224741114
  23      0.095337643614
  24      0.176880134695
  25     -0.142295991910
  26     -0.038506482770
  27      0.288015753933
  28     -0.161452649886
  29     -0.298224505042
  30      0.239361340497
  31      0.064629918422
  32     -0.012174135189
  33     -0.041862011618
  34      0.018816672146
  35     -0.003770067663
  36      0.002347454205
  37      0.001320447910
  38     -0.003528361391
  39     -0.000547484134
  40      0.001101854523
  41     -0.001028153017
  42      0.000012002991
  43     -0.000061268451
  44      0.000060862136
  45      0.000002847749
  46     -0.000027193670
  47     -0.000005229250
  48     -0.000004963698
  49      0.000039419886
  50      0.000011038874
  51     -0.000000204396
  52     -0.000000146441
  53      0.000000818509
  54     -0.000000726177
  55     -0.000000280859
  56      0.000522539853
  57     -0.002834482296
  58      0.002957767234
  59     -0.115938203355
  60     -0.411211196579
  61      0.174220841021
  62      0.154233377940
  63      0.545987970125
  64     -0.232098075577
  65     -0.006950106543
  66      0.003923619482
  67      0.007002846657
  68     -0.005572687679
  69     -0.001487732445
  70      0.000018411637
  71     -0.000016210573
  72     -0.000000434076
  73      0.000003415166
  74      0.000000934447
 Ene=   0.40852791198896E+00
 Spin= Alpha
 Occup=    0.000000
   1     -0.000003208604
   2     -0.000001463593
   3      0.000019507612
   4      0.000030598782
   5     -0.000018308205
   6     -0.000084596622
   7      0.000054521368
   8      0.000113896362
   9     -0.000148234331
  10      0.000002304958
  11     -0.000003909567
  12     -0.000007453486
  13     -0.000001167195
  14      0.000003172380
  15      0.000005477932
  16     -0.000010500536
  17      0.000017485550
  18      0.000033490554
  19      0.000013805986
  20     -0.000027584350
  21     -0.000050614259
  22      0.000007772268
  23     -0.000010673146
  24      0.000005482824
  25      0.000001924864
  26     -0.000004592901
  27     -0.000010340093
  28      0.000016076568
  29     -0.000006218598
  30     -0.000003714784
  31      0.000006749978
  32     -0.000002663357
  33      0.000011953011
  34      0.000019263965
  35     -0.000000049898
  36     -0.000000019670
  37     -0.000000172992
  38      0.000000132434
  39      0.000000013287
  40     -0.000000016863
  41      0.000000043032
  42     -0.002933110259
  43      0.014528662614
  44     -0.012745301436
  45      0.606590518017
  46      0.075684211511
  47      0.083162288094
  48     -0.645049878382
  49     -0.084421135428
  50     -0.090513140163
  51      0.000706361512
  52      0.002780446571
  53      0.000866398702
  54     -0.001467647730
  55      0.005720205881
  56      0.000019810332
  57     -0.000108349242
  58      0.000120239344
  59      0.000026534743
  60     -0.000021173816
  61     -0.000051716489
  62     -0.000034688609
  63      0.000027135980
  64      0.000066845831
  65     -0.000000503259
  66      0.000000087320
  67     -0.000000704887
  68      0.000000246665
  69      0.000000091958
  70     -0.005535099680
  71      0.002209348069
  72     -0.070378598064
  73     -0.009301367230
  74     -0.009913418922
 Ene=   0.40923605337146E+00
 Spin= Alpha
 Occup=    0.000000
   1     -0.000007322909
   2     -0.000003340467
   3      0.000044543613
   4      0.000069892410
   5     -0.000041838236
   6     -0.000193207081
   7      0.000124689675
   8      0.000258980307
   9     -0.000337244467
  10      0.000005372446
  11     -0.000008786489
  12     -0.000016926047
  13     -0.000004308365
  14      0.000006214935
  15      0.000012428302
  16     -0.000024040524
  17      0.000039562052
  18      0.000076071728
  19      0.000037731386
  20     -0.000058850771
  21     -0.000114954581
  22      0.000017788541
  23     -0.000008364988
  24      0.000021670057
  25     -0.000005444255
  26     -0.000004971135
  27     -0.000023736771
  28      0.000009962060
  29     -0.000029564646
  30      0.000007989555
  31      0.000006211898
  32     -0.000016050452
  33      0.000021287143
  34      0.000043724498
  35     -0.000000106034
  36      0.000000224299
  37     -0.000000233353
  38      0.000000011193
  39      0.000000179956
  40     -0.000000040985
  41     -0.000000031727
  42     -0.005517309657
  43      0.027086613467
  44     -0.022911920538
  45      0.681823249686
  46      0.148279845659
  47     -0.015227173041
  48     -0.723883833310
  49     -0.165928468866
  50      0.011979077824
  51     -0.000070887471
  52      0.003366274384
  53     -0.000017490529
  54     -0.002001577840
  55      0.006418721873
  56      0.000044797993
  57     -0.000245058638
  58      0.000272068212
  59      0.000030262155
  60     -0.000065259742
  61     -0.000117217321
  62     -0.000038898820
  63      0.000084567010
  64      0.000151654513
  65     -0.000001114690
  66      0.000000912832
  67     -0.000001154566
  68      0.000000106646
  69      0.000000448528
  70     -0.011304049878
  71      0.003470786502
  72     -0.079079707722
  73     -0.018294945889
  74      0.001240326357
 Ene=   0.50573331212659E+00
 Spin= Alpha
 Occup=    0.000000
   1      0.000003619507
   2      0.000002019061
   3     -0.000069835555
   4     -0.000158203806
   5      0.000139350153
   6      0.000351879874
   7     -0.000562419684
   8      0.001487559710
   9     -0.001051988216
  10     -0.000151253696
  11     -0.000113050420
  12      0.000185013749
  13      0.000344379137
  14      0.000072261639
  15     -0.000572175478
  16      0.000512992431
  17      0.000584396703
  18     -0.000463700642
  19     -0.001493438956
  20     -0.000990310017
  21      0.001931873058
  22      0.001511305479
  23     -0.001254888145
  24      0.000456984850
  25      0.000591785598
  26     -0.000380961065
  27     -0.001701819522
  28      0.001518879742
  29     -0.000043444087
  30     -0.000938886214
  31      0.000367031612
  32      0.000876689366
  33      0.000910931537
  34     -0.000874173099
  35      0.000005334419
  36     -0.000003320888
  37     -0.000023990047
  38      0.000023230681
  39      0.000008684462
  40     -0.000004387365
  41      0.000006098881
  42      0.000002051761
  43     -0.000011724543
  44      0.000015490015
  45      0.000000753570
  46      0.000000691486
  47     -0.000002674467
  48     -0.000000438616
  49     -0.000002896409
  50      0.000001815575
  51     -0.000000047646
  52      0.000000056111
  53     -0.000000185874
  54      0.000000069823
  55      0.000000059563
  56      0.000153443378
  57     -0.000944713899
  58      0.001257709662
  59      0.001740206558
  60      0.000219545248
  61     -0.003045109277
  62     -0.002056152501
  63     -0.000631771106
  64      0.003298486149
  65     -0.000031621200
  66      0.000002369578
  67     -0.000116165649
  68      0.000049763880
  69      0.000021957863
  70     -0.000001724504
  71     -0.000004581979
  72     -0.000000054154
  73     -0.000001067647
  74      0.000000287022
 Ene=   0.50739046473450E+00
 Spin= Alpha
 Occup=    0.000000
   1      0.000000477590
   2     -0.000000045285
   3     -0.000005485228
   4     -0.000010732627
   5      0.000009858586
   6      0.000025742787
   7     -0.000039346979
   8      0.000093915958
   9     -0.000066004924
  10     -0.000217033241
  11     -0.000015558708
  12     -0.000048376536
  13      0.000384196354
  14      0.000019569590
  15      0.000069877565
  16      0.000853175255
  17      0.000069873834
  18      0.000207494009
  19     -0.002059343383
  20     -0.000142373329
  21     -0.000448763757
  22     -0.000653757410
  23     -0.002060870488
  24     -0.000261383587
  25     -0.000640513579
  26      0.001082150218
  27      0.000926564497
  28      0.002694847069
  29      0.000396455467
  30      0.000626828263
  31     -0.001107549908
  32      0.001380561501
  33      0.000110806662
  34      0.000330563053
  35     -0.000012463133
  36     -0.000015704237
  37     -0.000009507194
  38      0.000010120197
  39     -0.000010048292
  40      0.000001932494
  41      0.000005503495
  42      0.000000129457
  43     -0.000000741483
  44      0.000000984844
  45      0.000000088493
  46      0.000000046894
  47     -0.000000147479
  48     -0.000000066319
  49     -0.000000192364
  50      0.000000090076
  51     -0.000000002616
  52      0.000000003838
  53     -0.000000011857
  54      0.000000004672
  55      0.000000004696
  56      0.000009152025
  57     -0.000056689273
  58      0.000076573237
  59      0.001806511562
  60      0.000084586673
  61      0.000312035199
  62     -0.002337011524
  63     -0.000131530064
  64     -0.000445921995
  65     -0.000030362830
  66     -0.000046150695
  67     -0.000018041175
  68      0.000031356963
  69     -0.000042079018
  70     -0.000000115228
  71     -0.000000293255
  72     -0.000000009129
  73     -0.000000068887
  74      0.000000014619
 Ene=   0.51581978889174E+00
 Spin= Alpha
 Occup=    0.000000
   1     -0.000000002651
   2     -0.000000001109
   3      0.000000017717
   4      0.000000029250
   5     -0.000000019367
   6     -0.000000078709
   7      0.000000064413
   8      0.000000020065
   9     -0.000000049562
  10      0.000001672923
  11      0.000000002402
  12      0.000000511100
  13     -0.000002465816
  14     -0.000000002254
  15     -0.000000748945
  16     -0.000006807369
  17     -0.000000011742
  18     -0.000002083576
  19      0.000014411901
  20      0.000000021827
  21      0.000004397396
  22      0.000000733222
  23      0.000001272204
  24      0.000000220468
  25     -0.000000482387
  26      0.000000794193
  27     -0.000001238836
  28     -0.000002121445
  29     -0.000000382138
  30      0.000000789050
  31     -0.000001293362
  32     -0.000007893785
  33     -0.000000019166
  34     -0.000002415316
  35      0.000000030723
  36      0.000000030837
  37      0.000000018425
  38     -0.000000019107
  39      0.000000025203
  40     -0.000000010098
  41     -0.000000023746
  42      0.000000541698
  43     -0.000004510516
  44      0.000010612395
  45     -0.001460498292
  46      0.000001922612
  47     -0.000507572587
  48      0.001416378768
  49     -0.000007624363
  50      0.000488480047
  51     -0.000007832693
  52     -0.000007939886
  53     -0.000009042431
  54      0.000004936135
  55     -0.000026191379
  56      0.000000000619
  57     -0.000000000088
  58     -0.000000008671
  59     -0.000003673661
  60     -0.000000009308
  61     -0.000001086202
  62      0.000005211192
  63      0.000000024387
  64      0.000001571654
  65      0.000000093503
  66      0.000000155305
  67      0.000000030500
  68     -0.000000054513
  69      0.000000088163
  70     -0.000005212794
  71     -0.000005414256
  72      0.000210337278
  73     -0.000001929751
  74      0.000073343112
 Ene=   0.56774591381271E+00
 Spin= Alpha
 Occup=    0.000000
   1     -0.000006643438
   2     -0.000003054537
   3      0.000042763346
   4      0.000069681618
   5     -0.000043673426
   6     -0.000191162795
   7      0.000143195807
   8      0.000127155377
   9     -0.000181638480
  10      0.000005259840
  11     -0.000005442906
  12     -0.000012147654
  13     -0.000004506286
  14      0.000003464233
  15      0.000008721522
  16     -0.000024202099
  17      0.000026068789
  18      0.000057331473
  19      0.000040851995
  20     -0.000040582844
  21     -0.000091985432
  22     -0.000000153372
  23      0.000000533494
  24     -0.000000059964
  25     -0.000000178434
  26      0.000000237063
  27      0.000002852425
  28     -0.000002692236
  29      0.000002942357
  30     -0.000000140538
  31     -0.000001322654
  32     -0.000020098981
  33      0.000019668632
  34      0.000044845683
  35     -0.000000102200
  36      0.000000179219
  37     -0.000000254305
  38      0.000000057907
  39      0.000000147700
  40     -0.000000045850
  41     -0.000000014772
  42     -0.036529092848
  43      0.236764554257
  44     -0.402183875170
  45      0.012675607659
  46     -0.078341828024
  47     -0.041887957343
  48     -0.039710019733
  49      0.227504485736
  50      0.118200809502
  51     -0.002776239147
  52     -0.001738693592
  53      0.009517972846
  54     -0.009025558004
  55     -0.003418733069
  56      0.000009464045
  57     -0.000051996103
  58      0.000057424837
  59      0.000007514057
  60     -0.000015657057
  61     -0.000028381207
  62     -0.000012907548
  63      0.000026535844
  64      0.000048230217
  65      0.000000233154
  66     -0.000000046271
  67      0.000000318066
  68     -0.000000109334
  69     -0.000000043365
  70      0.133545769323
  71      0.162279393010
  72     -0.007258387927
  73      0.041848472064
  74      0.021727050135
 Ene=   0.70477566130824E+00
 Spin= Alpha
 Occup=    0.000000
   1     -0.000332583560
   2     -0.000153204526
   3      0.002198730337
   4      0.003669479466
   5     -0.002331055776
   6     -0.010205260695
   7      0.008410131979
   8     -0.003273944607
   9      0.008453156851
  10      0.161536296707
  11      0.008024207392
  12      0.033544484520
  13     -0.120374171443
  14     -0.005595070181
  15     -0.024309688509
  16     -0.766120129398
  17     -0.038078053509
  18     -0.159056962455
  19      1.256345965561
  20      0.060252720125
  21      0.256661065679
  22      0.004090458006
  23      0.018074050718
  24     -0.000528773301
  25     -0.005310299355
  26      0.009773417758
  27     -0.007601774914
  28     -0.034272438144
  29      0.001147427150
  30      0.010036068032
  31     -0.018519822281
  32     -0.570341407798
  33     -0.023293335083
  34     -0.108500284468
  35      0.000310237148
  36      0.000609437571
  37      0.000085156919
  38     -0.000127556855
  39      0.000206793441
  40     -0.000238381427
  41     -0.000536608344
  42     -0.000000523090
  43     -0.000001586226
  44      0.000018018273
  45     -0.000004805018
  46      0.000013211575
  47      0.000015094357
  48      0.000008280266
  49     -0.000034070507
  50     -0.000024779416
  51      0.000001789845
  52     -0.000000257636
  53     -0.000000489888
  54      0.000002271947
  55      0.000000266282
  56     -0.001730692846
  57      0.013666138187
  58     -0.028837669653
  59     -0.069311248059
  60     -0.001887698352
  61     -0.011329972116
  62      0.131057520068
  63      0.010609121895
  64      0.035350533823
  65      0.004513515573
  66      0.010630186551
  67      0.001693494794
  68     -0.003836302242
  69      0.005763792560
  70     -0.000016368871
  71     -0.000016353296
  72      0.000003191707
  73      0.000000143316
  74     -0.000010660097
 Ene=   0.71618762809371E+00
 Spin= Alpha
 Occup=    0.000000
   1      0.000969207194
   2      0.000446707615
   3     -0.006306852968
   4     -0.010438294991
   5      0.006538586695
   6      0.029278097154
   7     -0.023538867067
   8      0.005941160490
   9     -0.022028585037
  10     -0.080930371849
  11     -0.119639155654
  12      0.071514896301
  13      0.057665947330
  14      0.083852625141
  15     -0.051928069784
  16      0.387220213304
  17      0.571792949237
  18     -0.342648371893
  19     -0.630162286202
  20     -0.920400879873
  21      0.564926366898
  22      0.019401801343
  23     -0.016395507281
  24      0.001487836273
  25      0.007340699141
  26     -0.003558656262
  27     -0.037635873841
  28      0.031683821699
  29     -0.003787195734
  30     -0.013700651501
  31      0.007056642235
  32      0.290154986561
  33      0.401106723109
  34     -0.276702370984
  35      0.000442371204
  36     -0.000660364393
  37      0.000371743811
  38      0.000368796285
  39     -0.000058521423
  40      0.000347774729
  41      0.000127414879
  42      0.000001708741
  43      0.000001448298
  44     -0.000041192235
  45      0.000012034424
  46     -0.000032845312
  47     -0.000037473802
  48     -0.000020355625
  49      0.000084511338
  50      0.000060550471
  51     -0.000004884523
  52      0.000000802029
  53      0.000000888527
  54     -0.000005939638
  55     -0.000000578293
  56      0.005238445403
  57     -0.040360937366
  58      0.082183688242
  59      0.034391355079
  60      0.046497075407
  61     -0.033574580688
  62     -0.056826693676
  63     -0.109420085206
  64      0.031652171107
  65      0.007341589566
  66     -0.007288255337
  67     -0.005723310834
  68      0.006164175532
  69     -0.000340253181
  70      0.000039800848
  71      0.000039998446
  72     -0.000008589157
  73     -0.000002114461
  74      0.000028810577
 Ene=   0.72996627602567E+00
 Spin= Alpha
 Occup=    0.000000
   1      0.004855498586
   2      0.002227101478
   3     -0.030736903635