[Molden Format]
[Title]
generated by TRESC, imaginary part1 of MOs of job HO-Fe-O
 
[Atoms] AU
Fe   1  26   -1.9433967606    5.6835529785    2.5820970979
 O   2   8    2.2933664906   -1.5636606629  -10.8470369664
 O   3   8   -3.0932515093    7.5938922267    6.2367166353
 H   4   1    2.6036718967   -3.2935041939  -11.7280080473
[GTO]
  1 0
 s  6 1.0
    60923.6406430000        0.0045980778
     9147.8893982000        0.0193220084
     2081.3505927000        0.0775531983
      587.5597706700        0.2480208186
      191.0904399000        0.4675986791
       65.7327301100        0.3373548125
 s  1 1.0
      127.2589192800        1.0000000000
 s  1 1.0
       14.8309130100        1.0000000000
 s  1 1.0
        6.0653307400        1.0000000000
 s  1 1.0
       10.4499437100        1.0000000000
 s  1 1.0
        1.7245228000        1.0000000000
 s  1 1.0
        0.7177217700        1.0000000000
 s  1 1.0
        0.0914498300        1.0000000000
 s  1 1.0
        0.0337066900        1.0000000000
 p  5 1.0
      773.4375099500        0.0106099056
      182.1514971400        0.0713199466
       57.5472727600        0.2648513978
       20.6149889400        0.5090783315
        7.6348557900        0.3293226861
 p  1 1.0
        3.8719328000        1.0000000000
 p  1 1.0
        1.4924724100        1.0000000000
 p  1 1.0
        0.5606128500        1.0000000000
 d  4 1.0
       38.9681334200        0.0334987321
       10.8000670800        0.1771399682
        3.6136458000        0.4404450273
        1.2129967900        0.5720563253
 d  1 1.0
        0.3652439300        1.0000000000
 p  1 1.0
        0.1349150000        1.0000000000
 f  1 1.0
        1.5980000000        1.0000000000
 
  2 0
 s  5 1.0
     2266.1767785000        0.0060711540
      340.8701019100        0.0417308970
       77.3631351700        0.1850777598
       21.4796449400        0.4668774046
        6.6589433100        0.4435718061
 s  1 1.0
        0.8097597600        1.0000000000
 s  1 1.0
        0.2553077200        1.0000000000
 p  3 1.0
       17.7215043200        0.0628680198
        3.8635505400        0.3334973703
        1.0480920900        0.7412421661
 p  1 1.0
        0.2764154400        1.0000000000
 d  1 1.0
        1.2000000000        1.0000000000
 
  3 0
 s  5 1.0
     2266.1767785000        0.0060711540
      340.8701019100        0.0417308970
       77.3631351700        0.1850777598
       21.4796449400        0.4668774046
        6.6589433100        0.4435718061
 s  1 1.0
        0.8097597600        1.0000000000
 s  1 1.0
        0.2553077200        1.0000000000
 p  3 1.0
       17.7215043200        0.0628680198
        3.8635505400        0.3334973703
        1.0480920900        0.7412421661
 p  1 1.0
        0.2764154400        1.0000000000
 d  1 1.0
        1.2000000000        1.0000000000
 
  4 0
 s  3 1.0
       13.0107010000        0.0391282527
        1.9622572000        0.2855840539
        0.4445379600        0.7689908602
 s  1 1.0
        0.1219496200        1.0000000000
 p  1 1.0
        0.8000000000        1.0000000000
 
[5D]
[7F]
[9G]
[MO]
 Ene=  -0.26095950945269E+03
 Spin= Alpha
 Occup=    0.000004
   1      0.001598548685
   2      0.000062080605
   3      0.000055995953
   4     -0.000002801372
   5     -0.000022646729
   6      0.000002123388
   7     -0.000001027911
   8      0.000000321121
   9     -0.000000119707
  10     -0.000000187076
  11     -0.000000113066
  12     -0.000000617070
  13      0.000000178161
  14      0.000000104037
  15      0.000000555405
  16     -0.000000130332
  17     -0.000000067207
  18     -0.000000376283
  19      0.000000066425
  20      0.000000012181
  21      0.000000130486
  22     -0.000000417078
  23      0.000000135545
  24     -0.000000464722
  25     -0.000000025714
  26      0.000000104184
  27      0.000000196696
  28     -0.000000076404
  29      0.000000217866
  30      0.000000003043
  31     -0.000000052568
  32     -0.000000045997
  33      0.000000049005
  34      0.000000068771
  35      0.000000051202
  36     -0.000000011306
  37      0.000000004299
  38     -0.000000020620
  39     -0.000000048681
  40      0.000000023702
  41     -0.000000001754
  42      0.000000000006
  43     -0.000000000028
  44     -0.000000000016
  45      0.000000000008
  46     -0.000000000013
  47     -0.000000000026
  48     -0.000000000029
  49      0.000000000081
  50      0.000000000090
  51      0.000000000004
  52      0.000000000002
  53     -0.000000000012
  54      0.000000000010
  55      0.000000000004
  56     -0.000000008822
  57      0.000000087881
  58     -0.000000175901
  59      0.000000009899
  60     -0.000000014835
  61     -0.000000027433
  62     -0.000000042334
  63      0.000000067358
  64      0.000000126564
  65     -0.000000016875
  66      0.000000012360
  67     -0.000000020933
  68      0.000000003492
  69      0.000000006902
  70      0.000000000040
  71      0.000000000066
  72     -0.000000000003
  73      0.000000000035
  74      0.000000000006
 Ene=  -0.26095920553784E+03
 Spin= Alpha
 Occup=    0.999996
   1     -0.816202752820
   2     -0.031696731799
   3     -0.028613059961
   4      0.001395258861
   5      0.011610089969
   6     -0.001056158317
   7      0.000492978638
   8     -0.000119466729
   9      0.000054059830
  10     -0.000001072512
  11      0.000001488011
  12      0.000004791922
  13      0.000000399675
  14     -0.000000368598
  15     -0.000002541587
  16      0.000000287739
  17     -0.000000690525
  18     -0.000000022892
  19     -0.000001268308
  20      0.000002200747
  21      0.000003646005
  22      0.000000012011
  23      0.000000228730
  24      0.000000025252
  25      0.000000008618
  26     -0.000000052817
  27     -0.000003711920
  28      0.000002395638
  29     -0.000004136952
  30      0.000000685141
  31      0.000001318459
  32      0.000003515109
  33     -0.000005864656
  34     -0.000011086284
  35     -0.000000075039
  36      0.000000067410
  37     -0.000000084342
  38      0.000000068412
  39      0.000000102332
  40     -0.000000016815
  41     -0.000000000898
  42     -0.000000002575
  43      0.000000012756
  44      0.000000007212
  45     -0.000000003669
  46      0.000000005896
  47      0.000000011663
  48      0.000000013147
  49     -0.000000036634
  50     -0.000000040461
  51     -0.000000001650
  52     -0.000000000795
  53      0.000000005499
  54     -0.000000004734
  55     -0.000000001910
  56      0.000000409757
  57     -0.000005800412
  58      0.000016644375
  59     -0.000000512763
  60      0.000000845613
  61      0.000001622581
  62      0.000003964441
  63     -0.000006568895
  64     -0.000012584820
  65      0.000001293889
  66     -0.000000867364
  67      0.000001436750
  68     -0.000000238254
  69     -0.000000453047
  70     -0.000000018109
  71     -0.000000029841
  72      0.000000001237
  73     -0.000000015938
  74     -0.000000002737
 Ene=  -0.31655947667653E+02
 Spin= Alpha
 Occup=    1.000000
   1     -0.264364589929
   2     -0.096334367993
   3      0.575661622352
   4      0.374838962238
   5     -0.044426856634
   6      0.014249989462
   7     -0.001795108497
   8      0.000249940522
   9     -0.000127625898
  10      0.000133592024
  11     -0.000244978327
  12     -0.000429827355
  13      0.000004726765
  14     -0.000005453463
  15     -0.000014647727
  16      0.000000796928
  17     -0.000003098410
  18     -0.000002748398
  19     -0.000002855324
  20      0.000005408059
  21      0.000009181580
  22      0.000319783845
  23     -0.000209472891
  24      0.000330778947
  25     -0.000049887934
  26     -0.000103201180
  27     -0.000114269923
  28      0.000074894745
  29     -0.000118903845
  30      0.000018110427
  31      0.000037134733
  32      0.000010644129
  33     -0.000017702787
  34     -0.000033889878
  35      0.000000683199
  36     -0.000001217073
  37      0.000002083918
  38     -0.000000504383
  39     -0.000001014852
  40      0.000000306838
  41      0.000000019458
  42      0.000000005345
  43     -0.000000028876
  44     -0.000000015031
  45      0.000000008256
  46     -0.000000013480
  47     -0.000000026225
  48     -0.000000029881
  49      0.000000082843
  50      0.000000091998
  51      0.000000003512
  52      0.000000001676
  53     -0.000000011636
  54      0.000000010034
  55      0.000000004042
  56      0.000004210387
  57     -0.000039764872
  58      0.000062909174
  59     -0.000004064389
  60      0.000007014892
  61      0.000012841170
  62      0.000012485388
  63     -0.000021452834
  64     -0.000039474435
  65      0.000006901963
  66     -0.000004670787
  67      0.000007895269
  68     -0.000001369724
  69     -0.000002492512
  70      0.000000039704
  71      0.000000068543
  72     -0.000000002686
  73      0.000000035087
  74      0.000000005905
 Ene=  -0.31578430463880E+02
 Spin= Alpha
 Occup=    0.000000
   1     -0.000012632821
   2     -0.000004601868
   3      0.000027566030
   4      0.000017838327
   5     -0.000002168387
   6      0.000000815086
   7     -0.000000211235
   8      0.000000205243
   9     -0.000000036159
  10     -0.000002133478
  11     -0.000021643988
  12      0.000003895964
  13      0.000000431313
  14      0.000003243165
  15     -0.000000358282
  16     -0.000000304491
  17     -0.000002204159
  18      0.000000254262
  19      0.000000147902
  20      0.000000904823
  21     -0.000000156922
  22     -0.000001077525
  23      0.000000329285
  24     -0.000000579778
  25      0.000000021500
  26      0.000000359138
  27      0.000000461330
  28     -0.000000166640
  29      0.000000403615
  30     -0.000000023837
  31     -0.000000156161
  32     -0.000000088946
  33     -0.000000122370
  34      0.000000212497
  35      0.000000129129
  36     -0.000000029079
  37      0.000000018676
  38     -0.000000058176
  39     -0.000000128500
  40      0.000000063512
  41     -0.000000005591
  42      0.000000000001
  43     -0.000000000008
  44     -0.000000000004
  45      0.000000000002
  46     -0.000000000005
  47     -0.000000000007
  48     -0.000000000008
  49      0.000000000024
  50      0.000000000026
  51      0.000000000001
  52      0.000000000000
  53     -0.000000000003
  54      0.000000000003
  55      0.000000000001
  56     -0.000000021932
  57      0.000000167363
  58     -0.000000316901
  59      0.000000018984
  60     -0.000000035387
  61     -0.000000050507
  62     -0.000000075222
  63      0.000000146151
  64      0.000000214057
  65     -0.000000023077
  66      0.000000020348
  67     -0.000000042053
  68      0.000000009552
  69      0.000000014221
  70      0.000000000011
  71      0.000000000019
  72     -0.000000000001
  73      0.000000000010
  74      0.000000000002
 Ene=  -0.27398925198779E+02
 Spin= Alpha
 Occup=    0.711672
   1      0.000081134090
   2      0.000029706222
   3     -0.000160156493
   4     -0.000080935943
   5     -0.000025798345
   6     -0.000064726884
   7      0.000069620491
   8     -0.000051574155
   9     -0.000045842681
  10      0.004286952219
  11     -0.590834248185
  12     -0.120770100323
  13      0.000150902338
  14      0.006498955590
  15      0.000746947103
  16      0.000032148543
  17     -0.015450919439
  18     -0.002922242327
  19     -0.000021108772
  20      0.005598308599
  21      0.001086240667
  22      0.000001252427
  23     -0.000004596959
  24      0.000035293769
  25     -0.000015695800
  26     -0.000010557139
  27     -0.000023497752
  28      0.000018509834
  29     -0.000052750306
  30      0.000016410039
  31      0.000016039467
  32      0.000034718544
  33     -0.001345827730
  34     -0.000346291716
  35      0.000018098610
  36     -0.000001870757
  37     -0.000031527622
  38      0.000046574533
  39      0.000032976223
  40      0.000009836580
  41      0.000001007350
  42      0.000000001871
  43     -0.000000010370
  44     -0.000000005332
  45      0.000000002960
  46     -0.000000004837
  47     -0.000000009403
  48     -0.000000010715
  49      0.000000029694
  50      0.000000032991
  51      0.000000001254
  52      0.000000000598
  53     -0.000000004155
  54      0.000000003583
  55      0.000000001443
  56      0.000000900267
  57     -0.000047036947
  58      0.000262335010
  59      0.000007580961
  60     -0.000040736879
  61     -0.000029236182
  62      0.000030524297
  63      0.000073411324
  64     -0.000074327731
  65      0.000009085644
  66     -0.000003637458
  67     -0.000014641875
  68      0.000009474795
  69      0.000003984943
  70      0.000000014212
  71      0.000000024565
  72     -0.000000000959
  73      0.000000012548
  74      0.000000002107
 Ene=  -0.27382283353975E+02
 Spin= Alpha
 Occup=    0.418118
   1     -0.000086677195
   2     -0.000029840232
   3      0.000170947633
   4      0.000085091818
   5      0.000024888972
   6      0.000069225794
   7     -0.000074793561
   8      0.000055406209
   9      0.000049498447
  10     -0.005353264902
  11     -0.114617368600
  12      0.532681822084
  13     -0.000174893984
  14      0.001613402057
  15     -0.005031327443
  16     -0.000044161310
  17     -0.003130390828
  18      0.013543836467
  19      0.000025365203
  20      0.001110910458
  21     -0.004910821439
  22     -0.000034131357
  23      0.000010940025
  24     -0.000011717458
  25     -0.000002325625
  26     -0.000000375770
  27      0.000051039160
  28     -0.000024603139
  29      0.000036035747
  30     -0.000002673152
  31     -0.000008166944
  32     -0.000037949309
  33     -0.000203770874
  34      0.001238376336
  35      0.000041418159
  36     -0.000020516347
  37      0.000032014075
  38      0.000015627025
  39      0.000000381111
  40      0.000009113029
  41     -0.000011093021
  42     -0.000000002020
  43      0.000000011196
  44      0.000000005767
  45     -0.000000003197
  46      0.000000005222
  47      0.000000010154
  48      0.000000011571
  49     -0.000000032067
  50     -0.000000035626
  51     -0.000000001354
  52     -0.000000000646
  53      0.000000004487
  54     -0.000000003869
  55     -0.000000001559
  56     -0.000001046262
  57      0.000050530567
  58     -0.000282584217
  59     -0.000008195705
  60      0.000007770741
  61      0.000050468629
  62     -0.000032784220
  63      0.000080214757
  64     -0.000003461737
  65      0.000014309742
  66     -0.000000489915
  67     -0.000003458064
  68      0.000003660235
  69      0.000004037855
  70     -0.000000015346
  71     -0.000000026535
  72      0.000000001036
  73     -0.000000013552
  74     -0.000000002277
 Ene=  -0.26951010617943E+02
 Spin= Alpha
 Occup=    0.841413
   1      0.000115996534
   2      0.000042456588
   3     -0.000247502597
   4     -0.000151941494
   5      0.000005247481
   6     -0.000056197082
   7      0.000057076024
   8     -0.000038792432
   9     -0.000037525790
  10      0.498890677801
  11     -0.269829775334
  12     -0.386109069943
  13      0.003661248079
  14     -0.002340422923
  15     -0.003662382037
  16      0.008232873322
  17     -0.004300374533
  18     -0.006020346572
  19     -0.002564713655
  20      0.001333726886
  21      0.001856442164
  22      0.000010480526
  23     -0.000027770720
  24      0.000019786461
  25      0.000000903352
  26     -0.000015692623
  27     -0.000024617441
  28      0.000028408741
  29     -0.000032011656
  30      0.000002856444
  31      0.000015477839
  32      0.000600999934
  33     -0.000338381090
  34     -0.000490454071
  35      0.000005130541
  36      0.000049502966
  37     -0.000030864640
  38      0.000006803196
  39      0.000033545857
  40     -0.000015759577
  41     -0.000027754366
  42      0.000000001537
  43     -0.000000008496
  44     -0.000000004373
  45      0.000000002425
  46     -0.000000003960
  47     -0.000000007704
  48     -0.000000008778
  49      0.000000024327
  50      0.000000027025
  51      0.000000001028
  52      0.000000000491
  53     -0.000000003407
  54      0.000000002939
  55      0.000000001184
  56      0.000000688153
  57     -0.000035604610
  58      0.000208405464
  59      0.000018753348
  60     -0.000016962237
  61     -0.000029079916
  62     -0.000031071690
  63     -0.000011904700
  64     -0.000037853309
  65      0.000000647295
  66      0.000007850567
  67     -0.000002529455
  68     -0.000001342245
  69      0.000004529082
  70      0.000000011648
  71      0.000000020120
  72     -0.000000000786
  73      0.000000010284
  74      0.000000001728
 Ene=  -0.26936073097456E+02
 Spin= Alpha
 Occup=    0.743561
   1     -0.000050476904
   2     -0.000015732421
   3      0.000108021887
   4      0.000064450531
   5     -0.000006931681
   6      0.000023748005
   7     -0.000024455851
   8      0.000016500825
   9      0.000016235640
  10      0.377010104603
  11     -0.193945639698
  12      0.526186033368
  13      0.002576360389
  14     -0.001153117722
  15      0.004317546419
  16      0.006280577788
  17     -0.003304342928
  18      0.008459945050
  19     -0.001948193054
  20      0.001028280441
  21     -0.002603786330
  22     -0.000032518326
  23     -0.000010064451
  24     -0.000002573879
  25      0.000000512287
  26     -0.000012182938
  27      0.000026644832
  28      0.000000525428
  29      0.000010302807
  30     -0.000001792773
  31      0.000004201540
  32      0.000428960610
  33     -0.000215460992
  34      0.000616856521
  35      0.000058121438
  36      0.000009009060
  37      0.000033416652
  38      0.000015146020
  39      0.000016770295
  40     -0.000001522389
  41     -0.000039713804
  42     -0.000000000665
  43      0.000000003675
  44      0.000000001893
  45     -0.000000001049
  46      0.000000001713
  47      0.000000003333
  48      0.000000003798
  49     -0.000000010526
  50     -0.000000011693
  51     -0.000000000445
  52     -0.000000000212
  53      0.000000001474
  54     -0.000000001271
  55     -0.000000000512
  56     -0.000000325203
  57      0.000015176126
  58     -0.000089641773
  59      0.000006630646
  60     -0.000000372694
  61      0.000021331966
  62     -0.000052725652
  63      0.000039820537
  64     -0.000022790972
  65      0.000010968847
  66      0.000005549164
  67     -0.000001256988
  68      0.000000129967
  69      0.000005592698
  70     -0.000000005039
  71     -0.000000008706
  72      0.000000000340
  73     -0.000000004450
  74     -0.000000000748
 Ene=  -0.26915113477959E+02
 Spin= Alpha
 Occup=    0.281898
   1     -0.000025082593
   2     -0.000012156346
   3      0.000053750913
   4      0.000036191994
   5      0.000002366210
   6      0.000011788791
   7     -0.000011333989
   8      0.000007424044
   9      0.000007250154
  10      0.035726104114
  11      0.352806478324
  12     -0.030590727189
  13      0.000222573916
  14      0.002949012223
  15     -0.000027769839
  16      0.000601265535
  17      0.005623299682
  18     -0.000584541447
  19     -0.000185227586
  20     -0.001711645590
  21      0.000183411533
  22      0.000006573372
  23     -0.000002576019
  24     -0.000014369005
  25      0.000009161985
  26      0.000003483266
  27     -0.000000163197
  28     -0.000000967458
  29      0.000012176482
  30     -0.000005762474
  31     -0.000003329908
  32      0.000037274117
  33      0.000391590956
  34     -0.000027462355
  35     -0.000017022021
  36      0.000008146216
  37      0.000011286010
  38     -0.000030767082
  39     -0.000018079237
  40     -0.000008965422
  41     -0.000001136284
  42     -0.000000000298
  43      0.000000001642
  44      0.000000000843
  45     -0.000000000468
  46      0.000000000764
  47      0.000000001488
  48      0.000000001695
  49     -0.000000004699
  50     -0.000000005220
  51     -0.000000000199
  52     -0.000000000095
  53      0.000000000659
  54     -0.000000000568
  55     -0.000000000229
  56      0.000000023769
  57      0.000006830903
  58     -0.000040185747
  59     -0.000000346463
  60      0.000010251852
  61      0.000003077420
  62     -0.000008761559
  63     -0.000029066067
  64      0.000019026445
  65     -0.000003469214
  66      0.000001537308
  67      0.000004659466
  68     -0.000003214309
  69     -0.000001224882
  70     -0.000000002250
  71     -0.000000003884
  72      0.000000000152
  73     -0.000000001986
  74     -0.000000000334
 Ene=  -0.26882344360462E+02
 Spin= Alpha
 Occup=    0.003339
   1     -0.000001319004
   2     -0.000001059739
   3      0.000002837332
   4      0.000002289475
   5      0.000000679060
   6      0.000000636500
   7     -0.000000525361
   8      0.000000332415
   9      0.000000311121
  10      0.002278252069
  11      0.039010557620
  12     -0.013034274156
  13      0.000018669049
  14      0.000370632462
  15     -0.000113487034
  16      0.000036150815
  17      0.000597762240
  18     -0.000203965224
  19     -0.000010849805
  20     -0.000178171914
  21      0.000061130046
  22      0.000001070633
  23     -0.000000375977
  24     -0.000001264400
  25      0.000001026129
  26      0.000000601944
  27     -0.000000456744
  28      0.000000087364
  29      0.000000902054
  30     -0.000000578292
  31     -0.000000365655
  32      0.000002237152
  33      0.000040152821
  34     -0.000013070757
  35     -0.000002496646
  36      0.000001098395
  37      0.000000526440
  38     -0.000005107049
  39     -0.000002637068
  40     -0.000000812327
  41      0.000000112061
  42     -0.000000000013
  43      0.000000000071
  44      0.000000000036
  45     -0.000000000020
  46      0.000000000033
  47      0.000000000064
  48      0.000000000073
  49     -0.000000000202
  50     -0.000000000224
  51     -0.000000000009
  52     -0.000000000004
  53      0.000000000028
  54     -0.000000000024
  55     -0.000000000010
  56     -0.000000046807
  57      0.000000290866
  58     -0.000001752599
  59     -0.000000000903
  60      0.000000932860
  61     -0.000000117453
  62     -0.000000446431
  63     -0.000003475571
  64      0.000001974770
  65     -0.000000476760
  66      0.000000134365
  67      0.000000482327
  68     -0.000000341287
  69     -0.000000167689
  70     -0.000000000097
  71     -0.000000000167
  72      0.000000000007
  73     -0.000000000085
  74     -0.000000000014
 Ene=  -0.20023936860320E+02
 Spin= Alpha
 Occup=    0.000000
   1      0.000000000003
   2      0.000000000006
   3     -0.000000000442
   4     -0.000000000895
   5      0.000000001001
   6      0.000000000998
   7     -0.000000001157
   8      0.000000002138
   9     -0.000000002113
  10      0.000000000001
  11     -0.000000000074
  12      0.000000000036
  13     -0.000000000004
  14     -0.000000000031
  15      0.000000000030
  16      0.000000000009
  17      0.000000000002
  18     -0.000000000036
  19     -0.000000000010
  20      0.000000000007
  21      0.000000000037
  22     -0.000000000009
  23      0.000000000004
  24     -0.000000000004
  25     -0.000000000001
  26      0.000000000001
  27      0.000000000025
  28     -0.000000000016
  29      0.000000000026
  30     -0.000000000004
  31     -0.000000000008
  32     -0.000000000004
  33      0.000000000011
  34      0.000000000012
  35      0.000000000001
  36     -0.000000000001
  37      0.000000000002
  38     -0.000000000000
  39     -0.000000000001
  40      0.000000000000
  41      0.000000000000
  42     -0.000295116850
  43     -0.000011238792
  44      0.000004507635
  45     -0.000000106204
  46      0.000000674527
  47      0.000000109939
  48      0.000000040317
  49     -0.000000263566
  50      0.000000014414
  51      0.000000334725
  52     -0.000000045229
  53     -0.000000838149
  54      0.000000159369
  55      0.000000079742
  56     -0.000000000022
  57     -0.000000000104
  58      0.000000000200
  59      0.000000000018
  60     -0.000000000022
  61     -0.000000000061
  62     -0.000000000066
  63      0.000000000106
  64      0.000000000212
  65     -0.000000000020
  66      0.000000000013
  67     -0.000000000021
  68      0.000000000003
  69      0.000000000007
  70      0.000000480814
  71     -0.000001014265
  72     -0.000000139567
  73      0.000000794805
  74      0.000000274376
 Ene=  -0.19992407850249E+02
 Spin= Alpha
 Occup=    1.000000
   1     -0.000000155262
   2     -0.000001460942
   3      0.000133955475
   4      0.000298459973
   5     -0.000316135444
   6     -0.000453255942
   7      0.000811156474
   8     -0.001486655969
   9     -0.000665203874
  10      0.000000397562
  11     -0.000000440007
  12     -0.000001160072
  13     -0.000002108310
  14      0.000003467242
  15      0.000006684328
  16      0.000019137986
  17     -0.000031774315
  18     -0.000060770810
  19     -0.000127357668
  20      0.000211569867
  21      0.000404771874
  22      0.000176015313
  23     -0.000117817927
  24      0.000195799406
  25     -0.000032644639
  26     -0.000061585467
  27     -0.000801359952
  28      0.000536519377
  29     -0.000891420768
  30      0.000148582203
  31      0.000280444855
  32      0.000690766938
  33     -0.001147671658
  34     -0.002195632074
  35     -0.000029209075
  36      0.000046238322
  37     -0.000076870721
  38      0.000022364036
  39      0.000042156067
  40     -0.000011872812
  41     -0.000000641018
  42     -0.000000694957
  43     -0.000000174461
  44     -0.000000062482
  45      0.000000041660
  46     -0.000000067577
  47     -0.000000132377
  48     -0.000000152514
  49      0.000000421496
  50      0.000000469681
  51      0.000000017474
  52      0.000000008353
  53     -0.000000057854
  54      0.000000049982
  55      0.000000020104
  56     -0.655099163356
  57     -0.027381307225
  58      0.012057782010
  59     -0.000236602693
  60      0.000392349768
  61      0.000750332255
  62      0.000546100796
  63     -0.000906857340
  64     -0.001734807367
  65      0.000229427327
  66     -0.000152365783
  67      0.000254349816
  68     -0.000042855245
  69     -0.000079928728
  70      0.000000199806
  71      0.000000349967
  72     -0.000000013709
  73      0.000000177785
  74      0.000000030246
 Ene=  -0.19963360700648E+02
 Spin= Alpha
 Occup=    1.000000
   1     -0.000000007830
   2     -0.000000017495
   3      0.000001338014
   4      0.000002714450
   5     -0.000003035515
   6     -0.000003030218
   7      0.000003515892
   8     -0.000006499693
   9      0.000006421303
  10     -0.000000001760
  11      0.000000002908
  12      0.000000005572
  13      0.000000010728
  14     -0.000000017825
  15     -0.000000034107
  16     -0.000000026356
  17      0.000000043779
  18      0.000000083772
  19      0.000000030207
  20     -0.000000050177
  21     -0.000000096011
  22      0.000000017372
  23     -0.000000011630
  24      0.000000019316
  25     -0.000000003218
  26     -0.000000006077
  27     -0.000000074468
  28      0.000000049859
  29     -0.000000082823
  30      0.000000013801
  31      0.000000026058
  32      0.000000014892
  33     -0.000000024745
  34     -0.000000047331
  35     -0.000000002368
  36      0.000000003748
  37     -0.000000006227
  38      0.000000001809
  39      0.000000003416
  40     -0.000000000961
  41     -0.000000000053
  42      0.973244665028
  43      0.037165275346
  44     -0.014989436673
  45      0.000331355757
  46     -0.001853320499
  47     -0.000940330712
  48     -0.000163543317
  49      0.000912142367
  50      0.000464143512
  51     -0.000243777635
  52     -0.000154424728
  53      0.000857013558
  54     -0.000811189451
  55     -0.000301848111
  56     -0.000001115027
  57      0.000000265662
  58     -0.000000585790
  59     -0.000000054909
  60      0.000000091227
  61      0.000000174521
  62      0.000000202103
  63     -0.000000335771
  64     -0.000000642352
  65      0.000000058077
  66     -0.000000038886
  67      0.000000064605
  68     -0.000000010768
  69     -0.000000020327
  70     -0.001267599476
  71      0.003439419009
  72      0.000398036985
  73     -0.002219627740
  74     -0.001129757176
 Ene=  -0.19931514762084E+02
 Spin= Alpha
 Occup=    0.000000
   1     -0.000000002629
   2     -0.000000002853
   3      0.000000062259
   4      0.000000124121
   5     -0.000000128030
   6     -0.000000184033
   7      0.000000313261
   8     -0.000000553988
   9     -0.000000236932
  10     -0.000000050941
  11     -0.000000058799
  12      0.000000155874
  13      0.000000006706
  14      0.000000024594
  15     -0.000000028489
  16      0.000000012940
  17     -0.000000034795
  18     -0.000000023125
  19     -0.000000049965
  20      0.000000073237
  21      0.000000158879
  22      0.000000112061
  23     -0.000000051333
  24      0.000000033716
  25      0.000000013381
  26     -0.000000006581
  27     -0.000000328383
  28      0.000000205110
  29     -0.000000305303
  30      0.000000038603
  31      0.000000094169
  32      0.000000255132
  33     -0.000000395571
  34     -0.000000824413
  35     -0.000000024895
  36      0.000000017183
  37     -0.000000005718
  38     -0.000000015316
  39      0.000000000476
  40      0.000000005247
  41     -0.000000005526
  42      0.000000000116
  43     -0.000000000049
  44     -0.000000000028
  45      0.000000000015
  46     -0.000000000016
  47     -0.000000000051
  48     -0.000000000054
  49      0.000000000147
  50      0.000000000169
  51      0.000000000006
  52      0.000000000003
  53     -0.000000000021
  54      0.000000000018
  55      0.000000000007
  56     -0.000237851622
  57     -0.000009965405
  58      0.000004346022
  59     -0.000000080776
  60      0.000000354284
  61      0.000000151669
  62      0.000000200075
  63     -0.000000443230
  64     -0.000000587889
  65      0.000000154625
  66     -0.000000035694
  67      0.000000693438
  68      0.000000236744
  69      0.000000121905
  70      0.000000000071
  71      0.000000000126
  72     -0.000000000005
  73      0.000000000064
  74      0.000000000011
 Ene=  -0.44717493563148E+01
 Spin= Alpha
 Occup=    1.000000
   1      0.108289093167
   2      0.045132676442
   3     -0.313132089875