[Molden Format]
[Title]
generated by TRESC, real part1 of MOs of job HO-Fe-O
 
[Atoms] AU
Fe   1  26   -1.9433967606    5.6835529785    2.5820970979
 O   2   8    2.2933664906   -1.5636606629  -10.8470369664
 O   3   8   -3.0932515093    7.5938922267    6.2367166353
 H   4   1    2.6036718967   -3.2935041939  -11.7280080473
[GTO]
  1 0
 s  6 1.0
    60923.6406430000        0.0045980778
     9147.8893982000        0.0193220084
     2081.3505927000        0.0775531983
      587.5597706700        0.2480208186
      191.0904399000        0.4675986791
       65.7327301100        0.3373548125
 s  1 1.0
      127.2589192800        1.0000000000
 s  1 1.0
       14.8309130100        1.0000000000
 s  1 1.0
        6.0653307400        1.0000000000
 s  1 1.0
       10.4499437100        1.0000000000
 s  1 1.0
        1.7245228000        1.0000000000
 s  1 1.0
        0.7177217700        1.0000000000
 s  1 1.0
        0.0914498300        1.0000000000
 s  1 1.0
        0.0337066900        1.0000000000
 p  5 1.0
      773.4375099500        0.0106099056
      182.1514971400        0.0713199466
       57.5472727600        0.2648513978
       20.6149889400        0.5090783315
        7.6348557900        0.3293226861
 p  1 1.0
        3.8719328000        1.0000000000
 p  1 1.0
        1.4924724100        1.0000000000
 p  1 1.0
        0.5606128500        1.0000000000
 d  4 1.0
       38.9681334200        0.0334987321
       10.8000670800        0.1771399682
        3.6136458000        0.4404450273
        1.2129967900        0.5720563253
 d  1 1.0
        0.3652439300        1.0000000000
 p  1 1.0
        0.1349150000        1.0000000000
 f  1 1.0
        1.5980000000        1.0000000000
 
  2 0
 s  5 1.0
     2266.1767785000        0.0060711540
      340.8701019100        0.0417308970
       77.3631351700        0.1850777598
       21.4796449400        0.4668774046
        6.6589433100        0.4435718061
 s  1 1.0
        0.8097597600        1.0000000000
 s  1 1.0
        0.2553077200        1.0000000000
 p  3 1.0
       17.7215043200        0.0628680198
        3.8635505400        0.3334973703
        1.0480920900        0.7412421661
 p  1 1.0
        0.2764154400        1.0000000000
 d  1 1.0
        1.2000000000        1.0000000000
 
  3 0
 s  5 1.0
     2266.1767785000        0.0060711540
      340.8701019100        0.0417308970
       77.3631351700        0.1850777598
       21.4796449400        0.4668774046
        6.6589433100        0.4435718061
 s  1 1.0
        0.8097597600        1.0000000000
 s  1 1.0
        0.2553077200        1.0000000000
 p  3 1.0
       17.7215043200        0.0628680198
        3.8635505400        0.3334973703
        1.0480920900        0.7412421661
 p  1 1.0
        0.2764154400        1.0000000000
 d  1 1.0
        1.2000000000        1.0000000000
 
  4 0
 s  3 1.0
       13.0107010000        0.0391282527
        1.9622572000        0.2855840539
        0.4445379600        0.7689908602
 s  1 1.0
        0.1219496200        1.0000000000
 p  1 1.0
        0.8000000000        1.0000000000
 
[5D]
[7F]
[9G]
[MO]
 Ene=  -0.26095950945269E+03
 Spin= Alpha
 Occup=    0.000004
   1      0.000966310673
   2      0.000037528615
   3      0.000033848025
   4     -0.000001694828
   5     -0.000013687684
   6      0.000001284815
   7     -0.000000622806
   8      0.000000195503
   9     -0.000000071717
  10     -0.000000014829
  11      0.000000170612
  12     -0.000000239690
  13      0.000000009225
  14     -0.000000163074
  15      0.000000211519
  16     -0.000000007940
  17      0.000000119948
  18     -0.000000138752
  19      0.000000009932
  20     -0.000000062363
  21      0.000000039139
  22     -0.000000307452
  23      0.000000170868
  24     -0.000000165674
  25      0.000000028580
  26      0.000000046801
  27      0.000000140987
  28     -0.000000079811
  29      0.000000088709
  30     -0.000000015067
  31     -0.000000025744
  32     -0.000000022001
  33      0.000000046085
  34      0.000000053248
  35      0.000000030665
  36     -0.000000034271
  37      0.000000031998
  38     -0.000000019152
  39     -0.000000033371
  40      0.000000010345
  41     -0.000000001184
  42      0.000000000003
  43     -0.000000000017
  44     -0.000000000010
  45      0.000000000005
  46     -0.000000000008
  47     -0.000000000015
  48     -0.000000000017
  49      0.000000000049
  50      0.000000000054
  51      0.000000000002
  52      0.000000000001
  53     -0.000000000007
  54      0.000000000006
  55      0.000000000003
  56     -0.000000005453
  57      0.000000054552
  58     -0.000000111513
  59      0.000000005273
  60     -0.000000010280
  61     -0.000000015795
  62     -0.000000025010
  63      0.000000044633
  64      0.000000076382
  65     -0.000000009565
  66      0.000000008093
  67     -0.000000012409
  68      0.000000002212
  69      0.000000004447
  70      0.000000000024
  71      0.000000000040
  72     -0.000000000002
  73      0.000000000021
  74      0.000000000004
 Ene=  -0.26095920553784E+03
 Spin= Alpha
 Occup=    0.999996
   1     -0.494748212135
   2     -0.019213242351
   3     -0.017344042238
   4      0.000845753854
   5      0.007037542899
   6     -0.000640198650
   7      0.000298820355
   8     -0.000072410444
   9      0.000032768038
  10     -0.000000643584
  11      0.000000870180
  12      0.000002885251
  13      0.000000221797
  14     -0.000000202900
  15     -0.000001522875
  16      0.000000190534
  17     -0.000000431556
  18     -0.000000025659
  19     -0.000000774490
  20      0.000001339247
  21      0.000002213571
  22     -0.000000009640
  23      0.000000172080
  24     -0.000000004153
  25      0.000000008651
  26     -0.000000025850
  27     -0.000002241661
  28      0.000001438540
  29     -0.000002497805
  30      0.000000413343
  31      0.000000796309
  32      0.000002130307
  33     -0.000003553572
  34     -0.000006715874
  35     -0.000000037582
  36      0.000000034430
  37     -0.000000049089
  38      0.000000042335
  39      0.000000053147
  40     -0.000000009153
  41      0.000000000978
  42     -0.000000001561
  43      0.000000007732
  44      0.000000004371
  45     -0.000000002224
  46      0.000000003574
  47      0.000000007069
  48      0.000000007969
  49     -0.000000022205
  50     -0.000000024525
  51     -0.000000001000
  52     -0.000000000482
  53      0.000000003333
  54     -0.000000002869
  55     -0.000000001158
  56      0.000000247865
  57     -0.000003511048
  58      0.000010080025
  59     -0.000000310428
  60      0.000000511704
  61      0.000000981872
  62      0.000002401444
  63     -0.000003978222
  64     -0.000007621743
  65      0.000000783305
  66     -0.000000524339
  67      0.000000870314
  68     -0.000000144734
  69     -0.000000274048
  70     -0.000000010976
  71     -0.000000018088
  72      0.000000000750
  73     -0.000000009661
  74     -0.000000001659
 Ene=  -0.31655947667653E+02
 Spin= Alpha
 Occup=    1.000000
   1     -0.191074061669
   2     -0.069627320970
   3      0.416069187111
   4      0.270921114964
   5     -0.032109948282
   6      0.010299485623
   7     -0.001297479484
   8      0.000180668966
   9     -0.000092248454
  10      0.000110533789
  11     -0.000169344859
  12     -0.000310899124
  13      0.000001255182
  14     -0.000005125026
  15     -0.000010540946
  16      0.000002036954
  17     -0.000001439805
  18     -0.000002016094
  19     -0.000002683695
  20      0.000003565511
  21      0.000006644784
  22      0.000231219984
  23     -0.000151519099
  24      0.000238784962
  25     -0.000035830425
  26     -0.000074598148
  27     -0.000082612335
  28      0.000054146382
  29     -0.000085847101
  30      0.000013024734
  31      0.000026835324
  32      0.000007834462
  33     -0.000012705443
  34     -0.000024482968
  35      0.000000515621
  36     -0.000000897669
  37      0.000001511051
  38     -0.000000361403
  39     -0.000000758446
  40      0.000000224273
  41      0.000000018097
  42      0.000000003864
  43     -0.000000020872
  44     -0.000000010865
  45      0.000000005968
  46     -0.000000009743
  47     -0.000000018955
  48     -0.000000021598
  49      0.000000059879
  50      0.000000066496
  51      0.000000002538
  52      0.000000001211
  53     -0.000000008410
  54      0.000000007253
  55      0.000000002922
  56      0.000003041793
  57     -0.000028726958
  58      0.000045442841
  59     -0.000002930560
  60      0.000005073844
  61      0.000009275215
  62      0.000008999071
  63     -0.000015514265
  64     -0.000028508260
  65      0.000004984610
  66     -0.000003366591
  67      0.000005708998
  68     -0.000000994834
  69     -0.000001798656
  70      0.000000028698
  71      0.000000049543
  72     -0.000000001941
  73      0.000000025361
  74      0.000000004268
 Ene=  -0.31578430463880E+02
 Spin= Alpha
 Occup=    0.000000
   1     -0.000007986772
   2     -0.000002908053
   3      0.000017427005
   4      0.000011278804
   5     -0.000001373301
   6      0.000000514337
   7     -0.000000132636
   8      0.000000127140
   9     -0.000000020577
  10      0.000020127346
  11      0.000001942302
  12      0.000003684519
  13     -0.000002984792
  14     -0.000000394288
  15     -0.000000477010
  16      0.000002029831
  17      0.000000279489
  18      0.000000337684
  19     -0.000000847928
  20     -0.000000137961
  21     -0.000000176883
  22     -0.000000778923
  23     -0.000000096545
  24     -0.000000414035
  25      0.000000115127
  26      0.000000058261
  27      0.000000328430
  28     -0.000000104364
  29      0.000000199081
  30     -0.000000043371
  31     -0.000000045456
  32      0.000000166308
  33      0.000000088583
  34      0.000000152938
  35      0.000000077429
  36     -0.000000096181
  37      0.000000082729
  38     -0.000000045710
  39     -0.000000092193
  40      0.000000027383
  41     -0.000000001823
  42      0.000000000001
  43     -0.000000000005
  44     -0.000000000002
  45      0.000000000002
  46     -0.000000000002
  47     -0.000000000004
  48     -0.000000000005
  49      0.000000000013
  50      0.000000000015
  51      0.000000000001
  52      0.000000000000
  53     -0.000000000002
  54      0.000000000002
  55      0.000000000001
  56     -0.000000013488
  57      0.000000104024
  58     -0.000000202315
  59      0.000000017955
  60     -0.000000019926
  61     -0.000000028548
  62     -0.000000073568
  63      0.000000080370
  64      0.000000128090
  65     -0.000000012343
  66      0.000000021328
  67     -0.000000020378
  68      0.000000001759
  69      0.000000011424
  70      0.000000000006
  71      0.000000000011
  72     -0.000000000000
  73      0.000000000006
  74      0.000000000001
 Ene=  -0.27398925198779E+02
 Spin= Alpha
 Occup=    0.711672
   1      0.000049125424
   2      0.000017659818
   3     -0.000096646845
   4     -0.000048473159
   5     -0.000015664049
   6     -0.000039736176
   7      0.000042815973
   8     -0.000031731202
   9     -0.000028222088
  10      0.584932025415
  11     -0.008298352064
  12     -0.077310021128
  13     -0.006620986737
  14     -0.000106120829
  15      0.000478014398
  16      0.015370845615
  17     -0.000137507698
  18     -0.001869622296
  19     -0.005558718704
  20      0.000059506130
  21      0.000693606357
  22      0.000001088676
  23     -0.000030851685
  24      0.000005006695
  25      0.000008122417
  26     -0.000015866003
  27     -0.000014661292
  28      0.000033504168
  29     -0.000019140302
  30     -0.000003908028
  31      0.000017201800
  32      0.001305421281
  33     -0.000044279470
  34     -0.000218894269
  35      0.000015310706
  36      0.000047162745
  37      0.000000767500
  38     -0.000013442592
  39      0.000019266987
  40     -0.000019140006
  41     -0.000036501943
  42      0.000000001152
  43     -0.000000006383
  44     -0.000000003287
  45      0.000000001824
  46     -0.000000002977
  47     -0.000000005789
  48     -0.000000006597
  49      0.000000018282
  50      0.000000020311
  51      0.000000000772
  52      0.000000000369
  53     -0.000000002558
  54      0.000000002206
  55      0.000000000889
  56      0.000000553240
  57     -0.000028939407
  58      0.000161440993
  59      0.000032729540
  60     -0.000007942634
  61     -0.000018126567
  62     -0.000104967738
  63     -0.000030368770
  64     -0.000045178322
  65      0.000005432764
  66      0.000018410597
  67      0.000003531872
  68     -0.000007236535
  69      0.000009269114
  70      0.000000008749
  71      0.000000015127
  72     -0.000000000591
  73      0.000000007726
  74      0.000000001298
 Ene=  -0.27382283353975E+02
 Spin= Alpha
 Occup=    0.418118
   1     -0.000053542826
   2     -0.000018500486
   3      0.000105672780
   4      0.000052671983
   5      0.000015359089
   6      0.000042641906
   7     -0.000046056958
   8      0.000034118194
   9      0.000030471139
  10      0.121854955467
  11      0.009464990719
  12      0.325384505508
  13     -0.001468514803
  14      0.000121062850
  15     -0.003073373389
  16      0.003228587872
  17      0.000155675118
  18      0.008273347151
  19     -0.001156967938
  20     -0.000066318434
  21     -0.003000093509
  22     -0.000020838356
  23      0.000000685830
  24     -0.000010943795
  25      0.000002462427
  26     -0.000002180589
  27      0.000031276641
  28     -0.000010416846
  29      0.000025128665
  30     -0.000004695507
  31     -0.000003513024
  32      0.000248003654
  33      0.000048184772
  34      0.000757038654
  35      0.000026115976
  36     -0.000002223874
  37      0.000024022760
  38      0.000000218785
  39     -0.000000024907
  40      0.000000300010
  41     -0.000014648712
  42     -0.000000001243
  43      0.000000006892
  44      0.000000003549
  45     -0.000000001968
  46      0.000000003215
  47      0.000000006251
  48      0.000000007123
  49     -0.000000019740
  50     -0.000000021931
  51     -0.000000000833
  52     -0.000000000398
  53      0.000000002762
  54     -0.000000002382
  55     -0.000000000959
  56     -0.000000644540
  57      0.000031115752
  58     -0.000173984572
  59      0.000000885152
  60      0.000008575988
  61      0.000030951162
  62     -0.000046336536
  63      0.000032658979
  64     -0.000001605745
  65      0.000008660020
  66      0.000004066820
  67      0.000000602997
  68     -0.000000563857
  69      0.000003881270
  70     -0.000000009447
  71     -0.000000016334
  72      0.000000000638
  73     -0.000000008343
  74     -0.000000001401
 Ene=  -0.26951010617943E+02
 Spin= Alpha
 Occup=    0.841413
   1      0.000070693313
   2      0.000026236691
   3     -0.000150988246
   4     -0.000092837258
   5      0.000002799713
   6     -0.000034063694
   7      0.000034537665
   8     -0.000023484981
   9     -0.000022662335
  10     -0.238784388743
  11     -0.498001320944
  12     -0.227268031681
  13     -0.001381643304
  14     -0.003632791303
  15     -0.002156512894
  16     -0.004098209206
  17     -0.008228355411
  18     -0.003543810634
  19      0.001283808037
  20      0.002564757975
  21      0.001093468511
  22      0.000006111434
  23      0.000008158971
  24      0.000027123750
  25     -0.000015560999
  26     -0.000001101228
  27     -0.000014724285
  28      0.000002677782
  29     -0.000028208422
  30      0.000011034976
  31      0.000004552587
  32     -0.000275874254
  33     -0.000601188464
  34     -0.000290066273
  35     -0.000000590640
  36     -0.000016896507
  37     -0.000037844909
  38      0.000044867713
  39      0.000022686511
  40      0.000016987127
  41      0.000019528628
  42      0.000000000928
  43     -0.000000005131
  44     -0.000000002639
  45      0.000000001465
  46     -0.000000002391
  47     -0.000000004652
  48     -0.000000005301
  49      0.000000014690
  50      0.000000016320
  51      0.000000000621
  52      0.000000000296
  53     -0.000000002058
  54      0.000000001775
  55      0.000000000715
  56      0.000000418471
  57     -0.000021556833
  58      0.000125993552
  59     -0.000002400379
  60     -0.000018754558
  61     -0.000017417724
  62      0.000042700576
  63      0.000030921915
  64     -0.000023524328
  65      0.000000568984
  66     -0.000005463739
  67     -0.000007783708
  68      0.000005686365
  69     -0.000000594194
  70      0.000000007034
  71      0.000000012149
  72     -0.000000000475
  73      0.000000006210
  74      0.000000001043
 Ene=  -0.26936073097456E+02
 Spin= Alpha
 Occup=    0.743561
   1     -0.000028474090
   2     -0.000008371659
   3      0.000060829484
   4      0.000035972913
   5     -0.000004539057
   6      0.000013519108
   7     -0.000014005878
   8      0.000009457850
   9      0.000009329537
  10     -0.181991421070
  11     -0.376540741640
  12      0.316120129694
  13     -0.001420409489
  14     -0.002583716143
  15      0.002593432807
  16     -0.002955901667
  17     -0.006268170404
  18      0.005082328619
  19      0.000912750803
  20      0.001943970776
  21     -0.001563709098
  22     -0.000019781825
  23      0.000012740788
  24      0.000010222614
  25     -0.000011993388
  26     -0.000001028651
  27      0.000015917467
  28     -0.000010311490
  29     -0.000000837473
  30      0.000005975941
  31     -0.000000945735
  32     -0.000210996875
  33     -0.000428460194
  34      0.000369594445
  35      0.000032150085
  36     -0.000030291641
  37      0.000004896003
  38      0.000040431874
  39      0.000012922871
  40      0.000020188417
  41      0.000004219092
  42     -0.000000000382
  43      0.000000002111
  44      0.000000001089
  45     -0.000000000603
  46      0.000000000984
  47      0.000000001915
  48      0.000000002183
  49     -0.000000006049
  50     -0.000000006719
  51     -0.000000000256
  52     -0.000000000122
  53      0.000000000847
  54     -0.000000000731
  55     -0.000000000294
  56     -0.000000188089
  57      0.000008698029
  58     -0.000051453855
  59     -0.000006000099
  60     -0.000006739126
  61      0.000012588989
  62      0.000013710404
  63      0.000052160019
  64     -0.000014579439
  65      0.000006723774
  66     -0.000004222300
  67     -0.000005475512
  68      0.000004931530
  69      0.000000917281
  70     -0.000000002896
  71     -0.000000005005
  72      0.000000000196
  73     -0.000000002557
  74     -0.000000000430
 Ene=  -0.26915113477959E+02
 Spin= Alpha
 Occup=    0.281898
   1     -0.000014113011
   2     -0.000006065357
   3      0.000030190415
   4      0.000019764813
   5      0.000000253785
   6      0.000006653741
   7     -0.000006525354
   8      0.000004266910
   9      0.000004249716
  10     -0.385859838350
  11     -0.034618726468
  12     -0.019332827522
  13     -0.003153096840
  14     -0.000213425677
  15     -0.000016258942
  16     -0.006180033770
  17     -0.000583639779
  18     -0.000370336879
  19      0.001882844230
  20      0.000179959226
  21      0.000116734893
  22      0.000004417458
  23      0.000017128160
  24      0.000002732757
  25     -0.000006726228
  26      0.000008858745
  27     -0.000000363638
  28     -0.000011053379
  29      0.000000821858
  30      0.000003355138
  31     -0.000005664446
  32     -0.000425329776
  33     -0.000036254239
  34     -0.000018292910
  35     -0.000013671573
  36     -0.000029143531
  37     -0.000007313895
  38      0.000011533874
  39     -0.000009543921
  40      0.000013464059
  41      0.000026828259
  42     -0.000000000175
  43      0.000000000962
  44      0.000000000495
  45     -0.000000000274
  46      0.000000000448
  47      0.000000000872
  48      0.000000000994
  49     -0.000000002755
  50     -0.000000003060
  51     -0.000000000117
  52     -0.000000000056
  53      0.000000000386
  54     -0.000000000333
  55     -0.000000000134
  56      0.000000022266
  57      0.000003934594
  58     -0.000023370446
  59     -0.000009752761
  60      0.000000350377
  61      0.000001768510
  62      0.000037922855
  63      0.000008458833
  64      0.000011263288
  65     -0.000002081824
  66     -0.000006208678
  67     -0.000001500170
  68      0.000002556234
  69     -0.000003108595
  70     -0.000000001319
  71     -0.000000002278
  72      0.000000000089
  73     -0.000000001165
  74     -0.000000000196
 Ene=  -0.26882344360462E+02
 Spin= Alpha
 Occup=    0.003339
   1     -0.000000930528
   2     -0.000001488997
   3      0.000001922096
   4      0.000002270704
   5      0.000001600216
   6      0.000000593527
   7     -0.000000386797
   8      0.000000226227
   9      0.000000187615
  10     -0.038854119823
  11      0.000863311646
  12     -0.008461352128
  13     -0.000368785787
  14      0.000011317459
  15     -0.000073233708
  16     -0.000595396229
  17      0.000011912634
  18     -0.000132615324
  19      0.000177359755
  20     -0.000003455564
  21      0.000039785116
  22      0.000000640588
  23      0.000001659554
  24      0.000000198210
  25     -0.000000419275
  26      0.000000917036
  27     -0.000000277762
  28     -0.000000971708
  29      0.000000007658
  30      0.000000233490
  31     -0.000000539479
  32     -0.000039753789
  33      0.000000971104
  34     -0.000008514516
  35     -0.000002044819
  36     -0.000002802759
  37     -0.000001082613
  38      0.000001672171
  39     -0.000002354433
  40      0.000001270117
  41      0.000003115024
  42     -0.000000000008
  43      0.000000000043
  44      0.000000000022
  45     -0.000000000012
  46      0.000000000020
  47      0.000000000038
  48      0.000000000044
  49     -0.000000000122
  50     -0.000000000135
  51     -0.000000000005
  52     -0.000000000002
  53      0.000000000017
  54     -0.000000000015
  55     -0.000000000006
  56     -0.000000027689
  57      0.000000187613
  58     -0.000001105760
  59     -0.000000871822
  60      0.000000070349
  61     -0.000000081392
  62      0.000003670140
  63      0.000000151138
  64      0.000001274585
  65     -0.000000308836
  66     -0.000000574808
  67     -0.000000091698
  68      0.000000200561
  69     -0.000000329039
  70     -0.000000000058
  71     -0.000000000101
  72      0.000000000004
  73     -0.000000000051
  74     -0.000000000009
 Ene=  -0.20023936860320E+02
 Spin= Alpha
 Occup=    0.000000
   1      0.000000000000
   2      0.000000000001
   3     -0.000000000081
   4     -0.000000000165
   5      0.000000000185
   6      0.000000000184
   7     -0.000000000213
   8      0.000000000394
   9     -0.000000000390
  10      0.000000000073
  11     -0.000000000000
  12      0.000000000022
  13      0.000000000036
  14      0.000000000001
  15      0.000000000014
  16     -0.000000000015
  17     -0.000000000003
  18     -0.000000000010
  19      0.000000000007
  20      0.000000000003
  21      0.000000000009
  22     -0.000000000003
  23     -0.000000000002
  24     -0.000000000002
  25      0.000000000001
  26     -0.000000000001
  27      0.000000000005
  28     -0.000000000002
  29      0.000000000005
  30     -0.000000000001
  31     -0.000000000001
  32     -0.000000000004
  33      0.000000000001
  34      0.000000000002
  35      0.000000000000
  36     -0.000000000000
  37      0.000000000000
  38     -0.000000000000
  39     -0.000000000000
  40      0.000000000000
  41     -0.000000000000
  42     -0.000053606464
  43     -0.000002041423
  44      0.000000818682
  45     -0.000000099703
  46      0.000000107930
  47      0.000000022043
  48      0.000000046215
  49     -0.000000040747
  50      0.000000002588
  51      0.000000060967
  52      0.000001075998
  53      0.000000044748
  54      0.000000067855
  55     -0.000000089222
  56     -0.000000000007
  57     -0.000000000019
  58      0.000000000037
  59     -0.000000000005
  60     -0.000000000005
  61     -0.000000000013
  62     -0.000000000009
  63      0.000000000020
  64      0.000000000040
  65     -0.000000000004
  66      0.000000000002
  67     -0.000000000004
  68      0.000000000001
  69      0.000000000001
  70      0.000000087306
  71     -0.000000184130
  72     -0.000000042991
  73      0.000000141217
  74      0.000000049949
 Ene=  -0.19992407850249E+02
 Spin= Alpha
 Occup=    1.000000
   1     -0.000000175401
   2     -0.000001649751
   3      0.000151278764
   4      0.000337056742
   5     -0.000357018308
   6     -0.000511871058
   7      0.000916055291
   8     -0.001678910288
   9     -0.000751228099
  10      0.000000258084
  11     -0.000000615207
  12     -0.000001309423
  13     -0.000002349184
  14      0.000003935203
  15      0.000007548491
  16      0.000021584987
  17     -0.000035899783
  18     -0.000068629790
  19     -0.000143805316
  20      0.000238943360
  21      0.000457117134
  22      0.000198777151
  23     -0.000133109548
  24      0.000221087205
  25     -0.000036831870
  26     -0.000069568148
  27     -0.000904992679
  28      0.000605955036
  29     -0.001006666744
  30      0.000167763205
  31      0.000316729150
  32      0.000780139260
  33     -0.001296062927
  34     -0.002479571338
  35     -0.000032986641
  36      0.000052263091
  37     -0.000086783987
  38      0.000025206057
  39      0.000047635180
  40     -0.000013405239
  41     -0.000000742784
  42     -0.000000784801
  43     -0.000000197021
  44     -0.000000070562
  45      0.000000047055
  46     -0.000000076311
  47     -0.000000149496
  48     -0.000000172240
  49      0.000000476002
  50      0.000000530420
  51      0.000000019734
  52      0.000000009434
  53     -0.000000065335
  54      0.000000056446
  55      0.000000022705
  56     -0.739816535907
  57     -0.030922255629
  58      0.013617093929
  59     -0.000266969094
  60      0.000443231444
  61      0.000847362984
  62      0.000616599576
  63     -0.001024207659
  64     -0.001959151766
  65      0.000259095000
  66     -0.000172747713
  67      0.000286836185
  68     -0.000047973445
  69     -0.000090491588
  70      0.000000225646
  71      0.000000395225
  72     -0.000000015481
  73      0.000000200777
  74      0.000000034158
 Ene=  -0.19963360700648E+02
 Spin= Alpha
 Occup=    1.000000
   1     -0.000000001421
   2     -0.000000003176
   3      0.000000242882
   4      0.000000492739
   5     -0.000000551020
   6     -0.000000550059
   7      0.000000638220
   8     -0.000001179853
   9      0.000001165623
  10     -0.000000000283
  11      0.000000000550
  12      0.000000001012
  13      0.000000001966
  14     -0.000000003224
  15     -0.000000006191
  16     -0.000000004793
  17      0.000000007942
  18      0.000000015207
  19      0.000000005489
  20     -0.000000009105
  21     -0.000000017428
  22      0.000000003154
  23     -0.000000002113
  24      0.000000003505
  25     -0.000000000583
  26     -0.000000001104
  27     -0.000000013518
  28      0.000000009051
  29     -0.000000015034
  30      0.000000002505
  31      0.000000004730
  32      0.000000002701
  33     -0.000000004493
  34     -0.000000008592
  35     -0.000000000430
  36      0.000000000681
  37     -0.000000001130
  38      0.000000000328
  39      0.000000000620
  40     -0.000000000175
  41     -0.000000000010
  42      0.176666464056
  43      0.006746358817
  44     -0.002720931486
  45      0.000060597827
  46     -0.000336339211
  47     -0.000170694294
  48     -0.000029658447
  49      0.000165580194
  50      0.000084253870
  51     -0.000044251146
  52     -0.000028212297
  53      0.000155534702
  54     -0.000147120122
  55     -0.000055139580
  56     -0.000000202422
  57      0.000000048223
  58     -0.000000106335
  59     -0.000000009972
  60      0.000000016557
  61      0.000000031680
  62      0.000000036689
  63     -0.000000060950
  64     -0.000000116603
  65      0.000000010542
  66     -0.000000007060
  67      0.000000011727
  68     -0.000000001954
  69     -0.000000003690
  70     -0.000230097260
  71      0.000624334696
  72      0.000072044063
  73     -0.000402949764
  74     -0.000205076392
 Ene=  -0.19931514762084E+02
 Spin= Alpha
 Occup=    0.000000
   1     -0.000000001573
   2     -0.000000001739
   3      0.000000037396
   4      0.000000074618
   5     -0.000000076899
   6     -0.000000110604
   7      0.000000188252
   8     -0.000000332975
   9     -0.000000142365
  10      0.000000110778
  11      0.000000050798
  12      0.000000094162
  13     -0.000000031440
  14     -0.000000006621
  15     -0.000000016974
  16      0.000000021224
  17     -0.000000012936
  18     -0.000000013982
  19     -0.000000020229
  20      0.000000049896
  21      0.000000095509
  22      0.000000067385
  23      0.000000020656
  24      0.000000051266
  25     -0.000000021874
  26      0.000000012086
  27     -0.000000197396
  28      0.000000087847
  29     -0.000000204805
  30      0.000000043190
  31      0.000000045954
  32      0.000000125017
  33     -0.000000254750
  34     -0.000000495485
  35     -0.000000014976
  36     -0.000000012331
  37     -0.000000017068
  38      0.000000018647
  39     -0.000000014292
  40      0.000000002631
  41      0.000000009467
  42      0.000000000170
  43     -0.000000000025
  44     -0.000000000018
  45      0.000000000001
  46     -0.000000000015
  47     -0.000000000031
  48     -0.000000000029
  49      0.000000000090
  50      0.000000000102
  51      0.000000000004
  52      0.000000000001
  53     -0.000000000012
  54      0.000000000011
  55      0.000000000004
  56     -0.000142939230
  57     -0.000005988838
  58      0.000002611828
  59     -0.000000268812
  60      0.000000080555
  61      0.000000091168
  62      0.000000231186
  63     -0.000000199717
  64     -0.000000353335
  65      0.000000092944
  66     -0.000000655439
  67      0.000000035731
  68     -0.000000161445
  69      0.000000234701
  70      0.000000000042
  71      0.000000000076
  72     -0.000000000003
  73      0.000000000037
  74      0.000000000006
 Ene=  -0.44717493563148E+01
 Spin= Alpha
 Occup=    1.000000
   1      0.061928701602
   2      0.025810616904
   3     -0.179074887947