[Molden Format]
[Title]
generated by TRESC, real part2 of MOs of job CO3
 
[Atoms] AU
 C   1   6    0.3364484192    5.8882927452    0.3891081484
 O   2   8    2.6974300312    5.9862747024    0.4085979628
 O   3   8   -0.7714112401    7.4618585764    1.8371371576
 O   4   8   -0.6184572465    4.2284969646   -1.0743142370
[GTO]
  1 0
 s  5 1.0
     1238.4016938000        0.0059599745
      186.2900499200        0.0422621111
       42.2511763500        0.1866575214
       11.6765579300        0.4675815865
        3.5930506500        0.4422897287
 s  1 1.0
        0.4024514700        1.0000000000
 s  1 1.0
        0.1309018300        1.0000000000
 p  3 1.0
        9.4680970600        0.0570294585
        2.0103545100        0.3130471495
        0.5477100500        0.7605135301
 p  1 1.0
        0.1526861400        1.0000000000
 d  1 1.0
        0.8000000000        1.0000000000
 
  2 0
 s  5 1.0
     2266.1767785000        0.0060711540
      340.8701019100        0.0417308970
       77.3631351700        0.1850777598
       21.4796449400        0.4668774046
        6.6589433100        0.4435718061
 s  1 1.0
        0.8097597600        1.0000000000
 s  1 1.0
        0.2553077200        1.0000000000
 p  3 1.0
       17.7215043200        0.0628680198
        3.8635505400        0.3334973703
        1.0480920900        0.7412421661
 p  1 1.0
        0.2764154400        1.0000000000
 d  1 1.0
        1.2000000000        1.0000000000
 
  3 0
 s  5 1.0
     2266.1767785000        0.0060711540
      340.8701019100        0.0417308970
       77.3631351700        0.1850777598
       21.4796449400        0.4668774046
        6.6589433100        0.4435718061
 s  1 1.0
        0.8097597600        1.0000000000
 s  1 1.0
        0.2553077200        1.0000000000
 p  3 1.0
       17.7215043200        0.0628680198
        3.8635505400        0.3334973703
        1.0480920900        0.7412421661
 p  1 1.0
        0.2764154400        1.0000000000
 d  1 1.0
        1.2000000000        1.0000000000
 
  4 0
 s  5 1.0
     2266.1767785000        0.0060711540
      340.8701019100        0.0417308970
       77.3631351700        0.1850777598
       21.4796449400        0.4668774046
        6.6589433100        0.4435718061
 s  1 1.0
        0.8097597600        1.0000000000
 s  1 1.0
        0.2553077200        1.0000000000
 p  3 1.0
       17.7215043200        0.0628680198
        3.8635505400        0.3334973703
        1.0480920900        0.7412421661
 p  1 1.0
        0.2764154400        1.0000000000
 d  1 1.0
        1.2000000000        1.0000000000
 
[5D]
[7F]
[9G]
[MO]
 Ene=   0.93291479025962E+00
 Spin= Alpha
 Occup=    0.000000
   1      0.000000000000
   2      0.000000000000
   3      0.000000000000
   4      0.000000000000
   5      0.000000000000
   6      0.000000000000
   7      0.000000000000
   8      0.000000000000
   9      0.000000000000
  10      0.000000000000
  11      0.000000000000
  12      0.000000000000
  13      0.000000000000
  14      0.000000000000
  15      0.000000000000
  16      0.000000000000
  17      0.000000000000
  18      0.000000000000
  19      0.000000000000
  20      0.000000000000
  21      0.000000000000
  22      0.000000000000
  23      0.000000000000
  24      0.000000000000
  25      0.000000000000
  26      0.000000000000
  27      0.000000000000
  28      0.000000000000
  29      0.000000000000
  30      0.000000000000
  31      0.000000000000
  32      0.000000000000
  33      0.000000000000
  34      0.000000000000
  35      0.000000000000
  36      0.000000000000
  37      0.000000000000
  38      0.000000000000
  39      0.000000000000
  40      0.000000000000
  41      0.000000000000
  42      0.000000000000
  43      0.000000000000
  44      0.000000000000
  45      0.000000000000
  46      0.000000000000
  47      0.000000000000
  48      0.000000000000
  49      0.000000000000
  50      0.000000000000
  51      0.000000000000
  52      0.000000000000
  53      0.000000000000
  54      0.000000000000
  55      0.000000000000
  56      0.000000000000
 Ene=   0.93467842222517E+00
 Spin= Alpha
 Occup=    0.000000
   1      0.000000415574
   2     -0.000005600932
   3     -0.000006598316
   4      0.000512221393
   5     -0.000004613495
   6      0.000045283921
   7     -0.004208849959
   8     -0.000035618161
   9      0.001500551225
  10     -0.017461463385
  11      0.000022445474
  12     -0.002144847425
  13     -0.010017994774
  14     -0.001147648781
  15      0.000000548377
  16     -0.000003393931
  17      0.000010080119
  18     -0.003992963543
  19     -0.000072278931
  20      0.002526292884
  21      0.005820045158
  22      0.000080965128
  23     -0.003135161834
  24      0.020001370469
  25     -0.000174351964
  26      0.002446609825
  27      0.011508858902
  28      0.000943935802
  29      0.000114456396
  30     -0.000539034437
  31      0.001088766988
  32     -0.502202002991
  33     -0.014717302392
  34      0.450660431359
  35      0.584528003425
  36      0.017170918061
  37     -0.524094805956
  38      0.012188321215
  39     -0.000547121974
  40      0.001520921726
  41      0.006988959232
  42      0.000899797448
  43     -0.000116132880
  44      0.000546639889
  45     -0.001091528239
  46      0.501237033046
  47      0.014751545286
  48     -0.451492835551
  49     -0.581156421485
  50     -0.017177233980
  51      0.523925601708
  52      0.012051231044
  53      0.000300510461
  54      0.001441549712
  55      0.006968206218
  56      0.000138091681
 Ene=   0.99692685739503E+00
 Spin= Alpha
 Occup=    0.000000
   1     -0.000212451776
   2      0.002660696649
   3      0.005919902033
   4     -0.169923278358
   5      0.008441445704
   6     -0.188728904322
   7      0.817006538193
   8     -0.038947963084
   9      0.907483752318
  10      0.002384136702
  11      0.176561046488
  12      0.009483324649
  13     -0.018128845385
  14      0.195751857228
  15     -0.000380792025
  16      0.002498049064
  17     -0.007579408101
  18      0.402047580524
  19     -0.021456399805
  20      0.446497239777
  21     -0.806107099556
  22      0.044597268860
  23     -0.895176106095
  24     -0.000711345387
  25     -0.054605259857
  26     -0.002971464982
  27      0.005461776901
  28     -0.060552414640
  29     -0.006620073318
  30     -0.001558877728
  31     -0.397793917002
  32      0.230018707493
  33     -0.027210075887
  34      0.256492326136
  35     -0.429553566388
  36      0.015848491905
  37     -0.479257487196
  38      0.002475601676
  39      0.005743117004
  40     -0.039615396810
  41      0.003885289726
  42      0.005238404439
  43      0.006614633027
  44      0.002392383662
  45      0.394071686659
  46      0.233192567757
  47      0.006293030900
  48      0.258058519923
  49     -0.434095412145
  50      0.022996991914
  51     -0.480118963738
  52     -0.002238473268
  53      0.002750555345
  54      0.039969072875
  55     -0.004795077086
  56      0.004173899682
 Ene=   0.10032373540462E+01
 Spin= Alpha
 Occup=    0.000000
   1      0.000000000000
   2      0.000000000000
   3      0.000000000000
   4      0.000000000000
   5      0.000000000000
   6      0.000000000000
   7      0.000000000000
   8      0.000000000000
   9      0.000000000000
  10      0.000000000000
  11      0.000000000000
  12      0.000000000000
  13      0.000000000000
  14      0.000000000000
  15      0.000000000000
  16      0.000000000000
  17      0.000000000000
  18      0.000000000000
  19      0.000000000000
  20      0.000000000000
  21      0.000000000000
  22      0.000000000000
  23      0.000000000000
  24      0.000000000000
  25      0.000000000000
  26      0.000000000000
  27      0.000000000000
  28      0.000000000000
  29      0.000000000000
  30      0.000000000000
  31      0.000000000000
  32      0.000000000000
  33      0.000000000000
  34      0.000000000000
  35      0.000000000000
  36      0.000000000000
  37      0.000000000000
  38      0.000000000000
  39      0.000000000000
  40      0.000000000000
  41      0.000000000000
  42      0.000000000000
  43      0.000000000000
  44      0.000000000000
  45      0.000000000000
  46      0.000000000000
  47      0.000000000000
  48      0.000000000000
  49      0.000000000000
  50      0.000000000000
  51      0.000000000000
  52      0.000000000000
  53      0.000000000000
  54      0.000000000000
  55      0.000000000000
  56      0.000000000000
 Ene=   0.10346595033177E+01
 Spin= Alpha
 Occup=    0.000000
   1      0.000000000000
   2      0.000000000000
   3      0.000000000000
   4      0.000000000000
   5      0.000000000000
   6      0.000000000000
   7      0.000000000000
   8      0.000000000000
   9      0.000000000000
  10      0.000000000000
  11      0.000000000000
  12      0.000000000000
  13      0.000000000000
  14      0.000000000000
  15      0.000000000000
  16      0.000000000000
  17      0.000000000000
  18      0.000000000000
  19      0.000000000000
  20      0.000000000000
  21      0.000000000000
  22      0.000000000000
  23      0.000000000000
  24      0.000000000000
  25      0.000000000000
  26      0.000000000000
  27      0.000000000000
  28      0.000000000000
  29      0.000000000000
  30      0.000000000000
  31      0.000000000000
  32      0.000000000000
  33      0.000000000000
  34      0.000000000000
  35      0.000000000000
  36      0.000000000000
  37      0.000000000000
  38      0.000000000000
  39      0.000000000000
  40      0.000000000000
  41      0.000000000000
  42      0.000000000000
  43      0.000000000000
  44      0.000000000000
  45      0.000000000000
  46      0.000000000000
  47      0.000000000000
  48      0.000000000000
  49      0.000000000000
  50      0.000000000000
  51      0.000000000000
  52      0.000000000000
  53      0.000000000000
  54      0.000000000000
  55      0.000000000000
  56      0.000000000000
 Ene=   0.10609839068510E+01
 Spin= Alpha
 Occup=    0.000000
   1      0.013253312155
   2     -0.186767796091
   3     -0.760145161299
   4      0.001079191357
   5      0.232532967395
   6      0.008928230652
   7     -0.006552366703
   8     -0.995491670629
   9     -0.040765111009
  10     -0.087037732508
  11      0.008132902668
  12     -0.123423595329
  13      0.176320212164
  14      0.015917875011
  15      0.000713727016
  16      0.020716778285
  17      0.516341530854
  18      0.000604033616
  19     -0.112190766170
  20     -0.004053783478
  21     -0.000721615262
  22      0.312239442596
  23      0.011156456817
  24     -0.019422979919
  25     -0.001772079667
  26      0.046844920316
  27      0.023657359823
  28      0.001349047926
  29      0.058227251926
  30     -0.392830203471
  31      0.582795236264
  32     -0.111841472844
  33     -0.538917126365
  34     -0.142337683192
  35      0.026208881115
  36      1.048711805874
  37      0.064061992835
  38      0.013852504640
  39      0.029008278891
  40      0.007415878365
  41     -0.027436645622
  42      0.030759253189
  43      0.057772598811
  44     -0.389649864649
  45      0.577581945720
  46      0.105274574871
  47     -0.551693296480
  48      0.098730776656
  49     -0.014590160015
  50      1.051166802052
  51      0.018772156736
  52      0.013107427559
  53     -0.030201669605
  54      0.004752586571
  55     -0.021682032836
  56     -0.034889925335
 Ene=   0.10754350129156E+01
 Spin= Alpha
 Occup=    0.000000
   1     -0.000034922654
   2      0.000401351431
   3      0.001045936884
   4     -0.029842253313
   5      0.001118078651
   6     -0.033157063755
   7     -0.022900839509
   8      0.003251216381
   9     -0.025359967001
  10      0.000796517550
  11      0.060447074171
  12      0.003143221220
  13     -0.006104359333
  14      0.067020239411
  15     -0.000043149574
  16      0.000133162826
  17     -0.001061703720
  18     -0.265165447739
  19      0.014186224635
  20     -0.294471576391
  21      0.401648573960
  22     -0.021743936071
  23      0.446029938753
  24      0.000428820984
  25      0.028783646859
  26      0.001334607881
  27     -0.002917013085
  28      0.031907368747
  29      0.009728864469
  30     -0.064864687019
  31      0.121676383618
  32      0.215859923926
  33      0.502208751211
  34      0.256662896947
  35     -0.326323553971
  36     -0.657232719224
  37     -0.384598342045
  38     -0.017962777050
  39     -0.018011934418
  40     -0.022992230651
  41      0.037157026214
  42     -0.018454227508
  43     -0.009785619074
  44      0.065502794064
  45     -0.122685899256
  46      0.208296443010
  47     -0.523380123141
  48      0.214432058625
  49     -0.316552327333
  50      0.688297054618
  51     -0.329455779311
  52      0.017411712662
  53     -0.020691437995
  54      0.021092046253
  55     -0.033238674781
  56     -0.024453309965
 Ene=   0.10862126294723E+01
 Spin= Alpha
 Occup=    0.000000
   1      0.000000000000
   2      0.000000000000
   3      0.000000000000
   4      0.000000000000
   5      0.000000000000
   6      0.000000000000
   7      0.000000000000
   8      0.000000000000
   9      0.000000000000
  10      0.000000000000
  11      0.000000000000
  12      0.000000000000
  13      0.000000000000
  14      0.000000000000
  15      0.000000000000
  16      0.000000000000
  17      0.000000000000
  18      0.000000000000
  19      0.000000000000
  20      0.000000000000
  21      0.000000000000
  22      0.000000000000
  23      0.000000000000
  24      0.000000000000
  25      0.000000000000
  26      0.000000000000
  27      0.000000000000
  28      0.000000000000
  29      0.000000000000
  30      0.000000000000
  31      0.000000000000
  32      0.000000000000
  33      0.000000000000
  34      0.000000000000
  35      0.000000000000
  36      0.000000000000
  37      0.000000000000
  38      0.000000000000
  39      0.000000000000
  40      0.000000000000
  41      0.000000000000
  42      0.000000000000
  43      0.000000000000
  44      0.000000000000
  45      0.000000000000
  46      0.000000000000
  47      0.000000000000
  48      0.000000000000
  49      0.000000000000
  50      0.000000000000
  51      0.000000000000
  52      0.000000000000
  53      0.000000000000
  54      0.000000000000
  55      0.000000000000
  56      0.000000000000
 Ene=   0.10990437604383E+01
 Spin= Alpha
 Occup=    0.000000
   1      0.000000000000
   2      0.000000000000
   3      0.000000000000
   4      0.000000000000
   5      0.000000000000
   6      0.000000000000
   7      0.000000000000
   8      0.000000000000
   9      0.000000000000
  10      0.000000000000
  11      0.000000000000
  12      0.000000000000
  13      0.000000000000
  14      0.000000000000
  15      0.000000000000
  16      0.000000000000
  17      0.000000000000
  18      0.000000000000
  19      0.000000000000
  20      0.000000000000
  21      0.000000000000
  22      0.000000000000
  23      0.000000000000
  24      0.000000000000
  25      0.000000000000
  26      0.000000000000
  27      0.000000000000
  28      0.000000000000
  29      0.000000000000
  30      0.000000000000
  31      0.000000000000
  32      0.000000000000
  33      0.000000000000
  34      0.000000000000
  35      0.000000000000
  36      0.000000000000
  37      0.000000000000
  38      0.000000000000
  39      0.000000000000
  40      0.000000000000
  41      0.000000000000
  42      0.000000000000
  43      0.000000000000
  44      0.000000000000
  45      0.000000000000
  46      0.000000000000
  47      0.000000000000
  48      0.000000000000
  49      0.000000000000
  50      0.000000000000
  51      0.000000000000
  52      0.000000000000
  53      0.000000000000
  54      0.000000000000
  55      0.000000000000
  56      0.000000000000
 Ene=   0.11021913721504E+01
 Spin= Alpha
 Occup=    0.000000
   1      0.000132581253
   2     -0.002613914991
   3     -0.008774449930
   4     -0.058019565922
   5     -0.002313626414
   6      0.052127941570
   7      0.874414019125
   8      0.025131469888
   9     -0.786187877679
  10      0.000241669451
  11     -0.008137115947
  12     -0.000327068071
  13     -0.000849224298
  14      0.007278263006
  15      0.000671121585
  16     -0.004497170764
  17      0.008946372134
  18      0.287876414322
  19      0.008920163203
  20     -0.258792285195
  21     -0.573798614985
  22     -0.020328040219
  23      0.515703031068
  24     -0.000262055622
  25     -0.020077460569
  26     -0.000584673763
  27     -0.001493360428
  28      0.018001392133
  29      0.000422939245
  30     -0.002714908963
  31      0.005537039457
  32      0.442809471658
  33      0.013517734051
  34     -0.397703499972
  35     -0.769979093790
  36     -0.022809450269
  37      0.689933622571
  38     -0.033120633506
  39      0.010963403362
  40     -0.003660152319
  41     -0.018224708141
  42     -0.010977650688
  43      0.000420823621
  44     -0.002699906740
  45      0.005499767908
  46      0.444858444671
  47      0.013607895386
  48     -0.400299274710
  49     -0.770294448268
  50     -0.023008036068
  51      0.694801697998
  52      0.033201369242
  53      0.010135080169
  54      0.004441984381
  55      0.019946655627
  56     -0.007933169435
 Ene=   0.11358094669286E+01
 Spin= Alpha
 Occup=    0.000000
   1     -0.046525147526
   2      0.827755932179
   3      3.214003677347
   4      0.001816443378
   5      0.158717398765
   6      0.007415212694
   7      0.010857375653
   8      0.478882970034
   9      0.020685292497
  10     -0.049416446787
  11      0.000267983382
  12      0.015145111952
  13      0.082150215095
  14      0.006250751370
  15     -0.217890709660
  16      1.475180441140
  17     -3.196784827228
  18     -0.000195515207
  19     -0.135517238131
  20     -0.006526099944
  21      0.007360215389
  22      1.126849944210
  23      0.048659384371
  24     -0.017442555209
  25      0.002679264769
  26     -0.046372750323
  27      0.039881751321
  28      0.004040283133
  29     -0.143665804126
  30      0.939004116914
  31     -1.965121997445
  32     -0.054147319262
  33     -0.041931820748
  34     -0.064375869441
  35      0.389573836189
  36     -0.187485411075
  37      0.432188769681
  38      0.028694523840
  39     -0.005032726004
  40     -0.007715331717
  41     -0.047893944817
  42     -0.009089771613
  43     -0.142999087282
  44      0.934357331660
  45     -1.952285184085
  46      0.056090817711
  47     -0.048095123096
  48      0.058025574804
  49     -0.394734383160
  50     -0.144496189269
  51     -0.438762970213
  52      0.028858077848
  53      0.004266287961
  54     -0.007387517438
  55     -0.048284374171
  56      0.001255006236
 Ene=   0.11438219758799E+01
 Spin= Alpha
 Occup=    0.000000
   1      0.000000000000
   2      0.000000000000
   3      0.000000000000
   4      0.000000000000
   5      0.000000000000
   6      0.000000000000
   7      0.000000000000
   8      0.000000000000
   9      0.000000000000
  10      0.000000000000
  11      0.000000000000
  12      0.000000000000
  13      0.000000000000
  14      0.000000000000
  15      0.000000000000
  16      0.000000000000
  17      0.000000000000
  18      0.000000000000
  19      0.000000000000
  20      0.000000000000
  21      0.000000000000
  22      0.000000000000
  23      0.000000000000
  24      0.000000000000
  25      0.000000000000
  26      0.000000000000
  27      0.000000000000
  28      0.000000000000
  29      0.000000000000
  30      0.000000000000
  31      0.000000000000
  32      0.000000000000
  33      0.000000000000
  34      0.000000000000
  35      0.000000000000
  36      0.000000000000
  37      0.000000000000
  38      0.000000000000
  39      0.000000000000
  40      0.000000000000
  41      0.000000000000
  42      0.000000000000
  43      0.000000000000
  44      0.000000000000
  45      0.000000000000
  46      0.000000000000
  47      0.000000000000
  48      0.000000000000
  49      0.000000000000
  50      0.000000000000
  51      0.000000000000
  52      0.000000000000
  53      0.000000000000
  54      0.000000000000
  55      0.000000000000
  56      0.000000000000
 Ene=   0.14633938580202E+01
 Spin= Alpha
 Occup=    0.000000
   1      0.000000000000
   2      0.000000000000
   3      0.000000000000
   4      0.000000000000
   5      0.000000000000
   6      0.000000000000
   7      0.000000000000
   8      0.000000000000
   9      0.000000000000
  10      0.000000000000
  11      0.000000000000
  12      0.000000000000
  13      0.000000000000
  14      0.000000000000
  15      0.000000000000
  16      0.000000000000
  17      0.000000000000
  18      0.000000000000
  19      0.000000000000
  20      0.000000000000
  21      0.000000000000
  22      0.000000000000
  23      0.000000000000
  24      0.000000000000
  25      0.000000000000
  26      0.000000000000
  27      0.000000000000
  28      0.000000000000
  29      0.000000000000
  30      0.000000000000
  31      0.000000000000
  32      0.000000000000
  33      0.000000000000
  34      0.000000000000
  35      0.000000000000
  36      0.000000000000
  37      0.000000000000
  38      0.000000000000
  39      0.000000000000
  40      0.000000000000
  41      0.000000000000
  42      0.000000000000
  43      0.000000000000
  44      0.000000000000
  45      0.000000000000
  46      0.000000000000
  47      0.000000000000
  48      0.000000000000
  49      0.000000000000
  50      0.000000000000
  51      0.000000000000
  52      0.000000000000
  53      0.000000000000
  54      0.000000000000
  55      0.000000000000
  56      0.000000000000
 Ene=   0.14636267232247E+01
 Spin= Alpha
 Occup=    0.000000
   1     -0.019092863507
   2      0.210934213436
   3      0.519799514088
   4     -0.001562789731
   5     -0.428053252526
   6     -0.015631813222
   7     -0.010400480855
   8     -3.102732781144
   9     -0.113827753306
  10      0.113878719647
  11     -0.011361876343
  12      0.227212068605
  13     -0.244337947158
  14     -0.025389266407
  15      0.167616931469
  16     -1.288685304607
  17      3.581477258684
  18      0.001385972460
  19      0.052467183402
  20      0.003324734381
  21     -0.013866468721
  22     -1.112468449752
  23     -0.049067301789
  24      0.038093334343
  25     -0.001435126579
  26     -0.006474653628
  27     -0.064494878437
  28     -0.004476108306
  29     -0.127588673505
  30      0.972218587329
  31     -2.407079236383
  32     -0.112383566037
  33     -0.235119496658
  34     -0.132874062272
  35      0.773192617263
  36      0.367818763569
  37      0.871258692806
  38     -0.004095655416
  39     -0.023705843737
  40      0.051093179510
  41     -0.001207719707
  42     -0.024791146937
  43     -0.125689733881
  44      0.957503590527
  45     -2.365229833557
  46      0.109635955405
  47     -0.248331146738
  48      0.113647054104
  49     -0.760546544303
  50      0.458868646363
  51     -0.831691906668
  52     -0.004370867196
  53      0.019318737836
  54      0.052571112790
  55     -0.005999399669
  56      0.022828373674
 Ene=   0.14875536212561E+01
 Spin= Alpha
 Occup=    0.000000
   1      0.000002959982
   2     -0.000025894556
   3     -0.000089635612
   4      0.003892370319
   5     -0.000150012730
   6      0.003713460808
   7      0.026035566142
   8     -0.001184399822
   9      0.029877215681
  10     -0.756055309300
  11      0.006419875679
  12     -0.092514566009
  13     -0.434859805314
  14     -0.037519825714
  15     -0.000009179158
  16      0.000070477022
  17     -0.000227731390
  18      0.001828623817
  19     -0.000095121591
  20      0.001912844197
  21     -0.005724889355
  22      0.000413557598
  23     -0.007438876694
  24     -0.086909449469
  25      0.002188121073
  26     -0.010573386199
  27     -0.050047815753
  28     -0.003842538560
  29     -0.001865835994
  30      0.014322032615
  31     -0.041045116414
  32      0.046420046156
  33      0.002949883384
  34     -0.040829125857
  35      0.153872737617
  36     -0.005528346711
  37     -0.127253351747
  38      0.153061404384
  39     -0.097222889517
  40      0.015973582135
  41      0.081998697972
  42      0.091849977606
  43      0.001891004514
  44     -0.014511357694
  45      0.041475831563
  46     -0.045241665290
  47     -0.002950527737
  48      0.041383484371
  49     -0.142370023969
  50      0.004876103989
  51      0.140275151938
  52      0.155209083988
  53      0.092254122583
  54      0.021626576954
  55      0.095482842718
  56     -0.078122473786
 Ene=   0.14882061562106E+01
 Spin= Alpha
 Occup=    0.000000
   1      0.000000000000
   2      0.000000000000
   3      0.000000000000
   4      0.000000000000
   5      0.000000000000
   6      0.000000000000
   7      0.000000000000
   8      0.000000000000
   9      0.000000000000
  10      0.000000000000
  11      0.000000000000
  12      0.000000000000
  13      0.000000000000
  14      0.000000000000
  15      0.000000000000
  16      0.000000000000
  17      0.000000000000
  18      0.000000000000
  19      0.000000000000
  20      0.000000000000
  21      0.000000000000
  22      0.000000000000
  23      0.000000000000
  24      0.000000000000
  25      0.000000000000
  26      0.000000000000
  27      0.000000000000
  28      0.000000000000
  29      0.000000000000
  30      0.000000000000
  31      0.000000000000
  32      0.000000000000
  33      0.000000000000
  34      0.000000000000
  35      0.000000000000
  36      0.000000000000
  37      0.000000000000
  38      0.000000000000
  39      0.000000000000
  40      0.000000000000
  41      0.000000000000
  42      0.000000000000
  43      0.000000000000
  44      0.000000000000
  45      0.000000000000
  46      0.000000000000
  47      0.000000000000
  48      0.000000000000
  49      0.000000000000
  50      0.000000000000
  51      0.000000000000
  52      0.000000000000
  53      0.000000000000
  54      0.000000000000
  55      0.000000000000
  56      0.000000000000
 Ene=   0.14914412841245E+01
 Spin= Alpha
 Occup=    0.000000
   1      0.000073357077
   2     -0.000799195371
   3     -0.001868807881
   4     -0.016449181087
   5      0.001168791341
   6      0.014830508132
   7      0.045956987897
   8      0.014208182818
   9     -0.040983557263
  10      0.007220470155
  11      0.656500598969
  12      0.021550894704
  13      0.043509427566
  14     -0.589221046647
  15     -0.000682735510
  16      0.005257325216
  17     -0.014751300450
  18     -0.055181920787
  19     -0.001843862305
  20      0.049580809073
  21     -0.183278220327
  22     -0.000797304560
  23      0.165073273223
  24     -0.003129914066
  25     -0.193037541274
  26     -0.006554851619
  27     -0.012673127333
  28      0.173292202264
  29      0.000508064150
  30     -0.003891456892
  31      0.009751184968
  32      0.029328540153
  33      0.001765166576
  34     -0.025464862632
  35      0.050820803349
  36     -0.000053692580
  37     -0.052127357410
  38      0.110745551542
  39      0.016909973840
  40      0.013783196065
  41      0.064904310162
  42     -0.011330048940
  43      0.000487977033
  44     -0.003736549979
  45      0.009307644850
  46      0.028088085241
  47      0.001816309278
  48     -0.026075710110
  49      0.056829970408
  50     -0.000497085702
  51     -0.044957311384
  52     -0.109682631360
  53      0.019949045440
  54     -0.013127193609
  55     -0.061954873146
  56     -0.021682603482
 Ene=   0.14929270891413E+01
 Spin= Alpha
 Occup=    0.000000
   1      0.000000000000
   2      0.000000000000
   3      0.000000000000
   4      0.000000000000
   5      0.000000000000
   6      0.000000000000
   7      0.000000000000
   8      0.000000000000
   9      0.000000000000
  10      0.000000000000
  11      0.000000000000
  12      0.000000000000
  13      0.000000000000
  14      0.000000000000
  15      0.000000000000
  16      0.000000000000
  17      0.000000000000
  18      0.000000000000
  19      0.000000000000
  20      0.000000000000
  21      0.000000000000
  22      0.000000000000
  23      0.000000000000
  24      0.000000000000
  25      0.000000000000
  26      0.000000000000
  27      0.000000000000
  28      0.000000000000
  29      0.000000000000
  30      0.000000000000
  31      0.000000000000
  32      0.000000000000
  33      0.000000000000
  34      0.000000000000
  35      0.000000000000
  36      0.000000000000
  37      0.000000000000
  38      0.000000000000
  39      0.000000000000
  40      0.000000000000
  41      0.000000000000
  42      0.000000000000
  43      0.000000000000
  44      0.000000000000
  45      0.000000000000
  46      0.000000000000
  47      0.000000000000
  48      0.000000000000
  49      0.000000000000
  50      0.000000000000
  51      0.000000000000
  52      0.000000000000
  53      0.000000000000
  54      0.000000000000
  55      0.000000000000
  56      0.000000000000
 Ene=   0.14953146364299E+01
 Spin= Alpha
 Occup=    0.000000
   1      0.000000000000
   2      0.000000000000
   3      0.000000000000
   4      0.000000000000
   5      0.000000000000
   6      0.000000000000
   7      0.000000000000
   8      0.000000000000
   9      0.000000000000
  10      0.000000000000
  11      0.000000000000
  12      0.000000000000
  13      0.000000000000
  14      0.000000000000
  15      0.000000000000
  16      0.000000000000
  17      0.000000000000
  18      0.000000000000
  19      0.000000000000
  20      0.000000000000
  21      0.000000000000
  22      0.000000000000
  23      0.000000000000
  24      0.000000000000
  25      0.000000000000
  26      0.000000000000
  27      0.000000000000
  28      0.000000000000
  29      0.000000000000
  30      0.000000000000
  31      0.000000000000
  32      0.000000000000
  33      0.000000000000
  34      0.000000000000
  35      0.000000000000
  36      0.000000000000
  37      0.000000000000
  38      0.000000000000
  39      0.000000000000
  40      0.000000000000
  41      0.000000000000