[Molden Format]
[Title]
generated by TRESC, real part1 of MOs of job CO3
 
[Atoms] AU
 C   1   6    0.3364484192    5.8882927452    0.3891081484
 O   2   8    2.6974300312    5.9862747024    0.4085979628
 O   3   8   -0.7714112401    7.4618585764    1.8371371576
 O   4   8   -0.6184572465    4.2284969646   -1.0743142370
[GTO]
  1 0
 s  5 1.0
     1238.4016938000        0.0059599745
      186.2900499200        0.0422621111
       42.2511763500        0.1866575214
       11.6765579300        0.4675815865
        3.5930506500        0.4422897287
 s  1 1.0
        0.4024514700        1.0000000000
 s  1 1.0
        0.1309018300        1.0000000000
 p  3 1.0
        9.4680970600        0.0570294585
        2.0103545100        0.3130471495
        0.5477100500        0.7605135301
 p  1 1.0
        0.1526861400        1.0000000000
 d  1 1.0
        0.8000000000        1.0000000000
 
  2 0
 s  5 1.0
     2266.1767785000        0.0060711540
      340.8701019100        0.0417308970
       77.3631351700        0.1850777598
       21.4796449400        0.4668774046
        6.6589433100        0.4435718061
 s  1 1.0
        0.8097597600        1.0000000000
 s  1 1.0
        0.2553077200        1.0000000000
 p  3 1.0
       17.7215043200        0.0628680198
        3.8635505400        0.3334973703
        1.0480920900        0.7412421661
 p  1 1.0
        0.2764154400        1.0000000000
 d  1 1.0
        1.2000000000        1.0000000000
 
  3 0
 s  5 1.0
     2266.1767785000        0.0060711540
      340.8701019100        0.0417308970
       77.3631351700        0.1850777598
       21.4796449400        0.4668774046
        6.6589433100        0.4435718061
 s  1 1.0
        0.8097597600        1.0000000000
 s  1 1.0
        0.2553077200        1.0000000000
 p  3 1.0
       17.7215043200        0.0628680198
        3.8635505400        0.3334973703
        1.0480920900        0.7412421661
 p  1 1.0
        0.2764154400        1.0000000000
 d  1 1.0
        1.2000000000        1.0000000000
 
  4 0
 s  5 1.0
     2266.1767785000        0.0060711540
      340.8701019100        0.0417308970
       77.3631351700        0.1850777598
       21.4796449400        0.4668774046
        6.6589433100        0.4435718061
 s  1 1.0
        0.8097597600        1.0000000000
 s  1 1.0
        0.2553077200        1.0000000000
 p  3 1.0
       17.7215043200        0.0628680198
        3.8635505400        0.3334973703
        1.0480920900        0.7412421661
 p  1 1.0
        0.2764154400        1.0000000000
 d  1 1.0
        1.2000000000        1.0000000000
 
[5D]
[7F]
[9G]
[MO]
 Ene=  -0.19348087074671E+02
 Spin= Alpha
 Occup=    1.000000
   1     -0.000340928943
   2     -0.000593440348
   3     -0.012381732518
   4      0.000002196395
   5      0.000186265072
   6      0.000008286190
   7     -0.000118808799
   8     -0.014362157565
   9     -0.000596197013
  10     -0.001018839403
  11      0.000054852005
  12     -0.000587210719
  13      0.001883022080
  14      0.000162132138
  15     -0.987422647118
  16     -0.047263095041
  17      0.036425631064
  18      0.000026336286
  19      0.003154898648
  20      0.000130922935
  21     -0.000068770361
  22     -0.008292067630
  23     -0.000344201892
  24      0.000123131925
  25      0.000005639282
  26     -0.000224617415
  27     -0.000165136876
  28     -0.000012423606
  29      0.001478734962
  30      0.001293515875
  31     -0.002071812703
  32     -0.000392292254
  33      0.000019055391
  34     -0.000435197165
  35      0.001428373771
  36      0.001873617046
  37      0.001647738913
  38      0.000025595041
  39     -0.000234615145
  40     -0.000261521068
  41      0.000026619004
  42     -0.000268627653
  43      0.001450220729
  44      0.001286890576
  45     -0.002073582917
  46      0.000390598439
  47     -0.000023464305
  48      0.000434209651
  49     -0.001395733143
  50      0.002030153378
  51     -0.001488358326
  52      0.000030014956
  53      0.000255233801
  54     -0.000237474856
  55     -0.000017378613
  56      0.000274808608
 Ene=  -0.19324665817246E+02
 Spin= Alpha
 Occup=    0.000000
   1      0.000000000000
   2      0.000000000000
   3      0.000000000000
   4      0.000000000000
   5      0.000000000000
   6      0.000000000000
   7      0.000000000000
   8      0.000000000000
   9      0.000000000000
  10      0.000000000000
  11      0.000000000000
  12      0.000000000000
  13      0.000000000000
  14      0.000000000000
  15      0.000000000000
  16      0.000000000000
  17      0.000000000000
  18      0.000000000000
  19      0.000000000000
  20      0.000000000000
  21      0.000000000000
  22      0.000000000000
  23      0.000000000000
  24      0.000000000000
  25      0.000000000000
  26      0.000000000000
  27      0.000000000000
  28      0.000000000000
  29      0.000000000000
  30      0.000000000000
  31      0.000000000000
  32      0.000000000000
  33      0.000000000000
  34      0.000000000000
  35      0.000000000000
  36      0.000000000000
  37      0.000000000000
  38      0.000000000000
  39      0.000000000000
  40      0.000000000000
  41      0.000000000000
  42      0.000000000000
  43      0.000000000000
  44      0.000000000000
  45      0.000000000000
  46      0.000000000000
  47      0.000000000000
  48      0.000000000000
  49      0.000000000000
  50      0.000000000000
  51      0.000000000000
  52      0.000000000000
  53      0.000000000000
  54      0.000000000000
  55      0.000000000000
  56      0.000000000000
 Ene=  -0.19302684237534E+02
 Spin= Alpha
 Occup=    0.000000
   1      0.000000000000
   2      0.000000000000
   3      0.000000000000
   4      0.000000000000
   5      0.000000000000
   6      0.000000000000
   7      0.000000000000
   8      0.000000000000
   9      0.000000000000
  10      0.000000000000
  11      0.000000000000
  12      0.000000000000
  13      0.000000000000
  14      0.000000000000
  15      0.000000000000
  16      0.000000000000
  17      0.000000000000
  18      0.000000000000
  19      0.000000000000
  20      0.000000000000
  21      0.000000000000
  22      0.000000000000
  23      0.000000000000
  24      0.000000000000
  25      0.000000000000
  26      0.000000000000
  27      0.000000000000
  28      0.000000000000
  29      0.000000000000
  30      0.000000000000
  31      0.000000000000
  32      0.000000000000
  33      0.000000000000
  34      0.000000000000
  35      0.000000000000
  36      0.000000000000
  37      0.000000000000
  38      0.000000000000
  39      0.000000000000
  40      0.000000000000
  41      0.000000000000
  42      0.000000000000
  43      0.000000000000
  44      0.000000000000
  45      0.000000000000
  46      0.000000000000
  47      0.000000000000
  48      0.000000000000
  49      0.000000000000
  50      0.000000000000
  51      0.000000000000
  52      0.000000000000
  53      0.000000000000
  54      0.000000000000
  55      0.000000000000
  56      0.000000000000
 Ene=  -0.19301283053890E+02
 Spin= Alpha
 Occup=    0.000000
   1      0.000000000000
   2      0.000000000000
   3      0.000000000000
   4      0.000000000000
   5      0.000000000000
   6      0.000000000000
   7      0.000000000000
   8      0.000000000000
   9      0.000000000000
  10      0.000000000000
  11      0.000000000000
  12      0.000000000000
  13      0.000000000000
  14      0.000000000000
  15      0.000000000000
  16      0.000000000000
  17      0.000000000000
  18      0.000000000000
  19      0.000000000000
  20      0.000000000000
  21      0.000000000000
  22      0.000000000000
  23      0.000000000000
  24      0.000000000000
  25      0.000000000000
  26      0.000000000000
  27      0.000000000000
  28      0.000000000000
  29      0.000000000000
  30      0.000000000000
  31      0.000000000000
  32      0.000000000000
  33      0.000000000000
  34      0.000000000000
  35      0.000000000000
  36      0.000000000000
  37      0.000000000000
  38      0.000000000000
  39      0.000000000000
  40      0.000000000000
  41      0.000000000000
  42      0.000000000000
  43      0.000000000000
  44      0.000000000000
  45      0.000000000000
  46      0.000000000000
  47      0.000000000000
  48      0.000000000000
  49      0.000000000000
  50      0.000000000000
  51      0.000000000000
  52      0.000000000000
  53      0.000000000000
  54      0.000000000000
  55      0.000000000000
  56      0.000000000000
 Ene=  -0.19290850001557E+02
 Spin= Alpha
 Occup=    1.000000
   1      0.000274645523
   2      0.000821586610
   3      0.009768192330
   4      0.000133362390
   5     -0.000069197523
   6      0.000146178555
   7      0.011794255907
   8     -0.006845109982
   9      0.012889974799
  10     -0.000284168747
  11      0.001177749516
  12     -0.001084851970
  13      0.000645298038
  14      0.001313942035
  15      0.001619953275
  16     -0.001117078901
  17      0.002550620631
  18      0.000209136580
  19      0.000422754599
  20      0.000245928816
  21     -0.002449250865
  22     -0.000837782627
  23     -0.002749339224
  24      0.000022819677
  25      0.000272907895
  26      0.000259027205
  27     -0.000111921883
  28      0.000305839272
  29      0.984539643720
  30      0.046397671504
  31     -0.038167094723
  32     -0.001839819840
  33      0.001470903283
  34     -0.001996848855
  35      0.005235613934
  36     -0.004496553922
  37      0.005672489644
  38      0.000057985193
  39     -0.000208652639
  40      0.000144064129
  41     -0.000116884601
  42     -0.000234988494
  43     -0.079189982435
  44     -0.004988175963
  45      0.008531032828
  46     -0.000176399235
  47     -0.000481779807
  48     -0.000212692845
  49      0.000180418951
  50      0.003993173297
  51      0.000335193703
  52     -0.000246746664
  53      0.000260563436
  54     -0.000218687301
  55      0.000455858575
  56      0.000312712580
 Ene=  -0.19289823713036E+02
 Spin= Alpha
 Occup=    1.000000
   1      0.000320677133
   2      0.000971322079
   3      0.011465645426
   4     -0.000120900629
   5     -0.000070694273
   6     -0.000136671360
   7     -0.010144089899
   8     -0.006797052905
   9     -0.011510974024
  10     -0.000362213677
  11     -0.000886809440
  12     -0.001381157118
  13      0.000980347163
  14     -0.000973768479
  15      0.001872047991
  16     -0.001310511824
  17      0.003018652847
  18     -0.000170430982
  19      0.000516868345
  20     -0.000173271755
  21      0.002073828917
  22     -0.001247514683
  23      0.002268634424
  24      0.000018590527
  25     -0.000257590352
  26      0.000271904344
  27     -0.000074104744
  28     -0.000281955127
  29      0.079442298549
  30      0.002471017747
  31      0.002467095051
  32     -0.000126632548
  33     -0.000267549247
  34     -0.000150104646
  35      0.000726473207
  36      0.003337616745
  37      0.000920537116
  38     -0.000246977759
  39     -0.000265700623
  40     -0.000223825175
  41      0.000492454043
  42     -0.000271087676
  43      0.984557643931
  44      0.046204476862
  45     -0.037302351821
  46      0.001852529027
  47      0.001213223845
  48      0.002101596268
  49     -0.005343092450
  50     -0.003349934220
  51     -0.006055988182
  52      0.000021027783
  53      0.000234014034
  54      0.000127086670
  55     -0.000079369571
  56      0.000259850334
 Ene=  -0.10449714201295E+02
 Spin= Alpha
 Occup=    1.000000
   1     -0.987095767719
   2     -0.053911787443
   3     -0.001808848418
   4     -0.000020102375
   5     -0.000736828422
   6     -0.000042804489
   7     -0.000014176003
   8     -0.000619731822
   9     -0.000028108274
  10      0.001180740718
  11      0.000142555183
  12     -0.004103919369
  13     -0.001172034336
  14     -0.000067070605
  15      0.000014488372
  16     -0.000464854317
  17      0.010288864756
  18     -0.000010281186
  19     -0.001305409514
  20     -0.000053338289
  21     -0.000065655900
  22     -0.007867666914
  23     -0.000328800339
  24     -0.000827641128
  25      0.000024404801
  26     -0.000023305005
  27      0.001433939937
  28      0.000118941154
  29     -0.000015266039
  30     -0.000753038100
  31      0.010088827835
  32     -0.000756514858
  33      0.000670680217
  34     -0.000818719623
  35     -0.004943909385
  36      0.003597501392
  37     -0.005380356109
  38      0.000069915858
  39     -0.000990949407
  40      0.001352281938
  41     -0.000343509730
  42     -0.001075979337
  43     -0.000015939344
  44     -0.000760295714
  45      0.010067453065
  46      0.000762549377
  47      0.000587732816
  48      0.000868198734
  49      0.004986306510
  50      0.003071604557
  51      0.005647670523
  52      0.000092590892
  53      0.000869035192
  54      0.001446869645
  55     -0.000528388499
  56      0.000986381496
 Ene=  -0.10449519807890E+02
 Spin= Alpha
 Occup=    0.000000
   1      0.000000000000
   2      0.000000000000
   3      0.000000000000
   4      0.000000000000
   5      0.000000000000
   6      0.000000000000
   7      0.000000000000
   8      0.000000000000
   9      0.000000000000
  10      0.000000000000
  11      0.000000000000
  12      0.000000000000
  13      0.000000000000
  14      0.000000000000
  15      0.000000000000
  16      0.000000000000
  17      0.000000000000
  18      0.000000000000
  19      0.000000000000
  20      0.000000000000
  21      0.000000000000
  22      0.000000000000
  23      0.000000000000
  24      0.000000000000
  25      0.000000000000
  26      0.000000000000
  27      0.000000000000
  28      0.000000000000
  29      0.000000000000
  30      0.000000000000
  31      0.000000000000
  32      0.000000000000
  33      0.000000000000
  34      0.000000000000
  35      0.000000000000
  36      0.000000000000
  37      0.000000000000
  38      0.000000000000
  39      0.000000000000
  40      0.000000000000
  41      0.000000000000
  42      0.000000000000
  43      0.000000000000
  44      0.000000000000
  45      0.000000000000
  46      0.000000000000
  47      0.000000000000
  48      0.000000000000
  49      0.000000000000
  50      0.000000000000
  51      0.000000000000
  52      0.000000000000
  53      0.000000000000
  54      0.000000000000
  55      0.000000000000
  56      0.000000000000
 Ene=  -0.12360089742718E+01
 Spin= Alpha
 Occup=    1.000000
   1     -0.177626886776
   2      0.348415408211
   3      0.007520910350
   4      0.001397606476
   5      0.091580918849
   6      0.004453643039
   7      0.000038595638
   8      0.001075405849
   9      0.000082922372
  10     -0.010225904672
  11     -0.000467336770
  12      0.017266490732
  13      0.014010996540
  14      0.001016555636
  15     -0.209379553912
  16      0.420200060529
  17      0.225021079432
  18     -0.001078809106
  19     -0.139919976227
  20     -0.005722695493
  21     -0.000257643581
  22     -0.037439230496
  23     -0.001495854039
  24     -0.005431431583
  25     -0.000166059065
  26      0.007508994879
  27      0.007792309892
  28      0.000588454081
  29     -0.092579724200
  30      0.180257960659
  31      0.097679337220
  32     -0.042593893000
  33      0.043759369863
  34     -0.045928695852
  35     -0.011321239419
  36      0.012352783077
  37     -0.012185435197
  38      0.000103398660
  39     -0.005013133264
  40      0.004763120184
  41     -0.000863213045
  42     -0.005464873845
  43     -0.091600311504
  44      0.178337298231
  45      0.096709855179
  46      0.042748974535
  47      0.038814350550
  48      0.048834761537
  49      0.011407142846
  50      0.011029162080
  51      0.013051677140
  52      0.000203820022
  53      0.004522828061
  54      0.005187189290
  55     -0.001764562946
  56      0.005109500073
 Ene=  -0.12198348086199E+01
 Spin= Alpha
 Occup=   -0.000000
   1      0.000000000000
   2      0.000000000000
   3      0.000000000000
   4      0.000000000000
   5      0.000000000000
   6      0.000000000000
   7      0.000000000000
   8      0.000000000000
   9      0.000000000000
  10      0.000000000000
  11      0.000000000000
  12      0.000000000000
  13      0.000000000000
  14      0.000000000000
  15      0.000000000000
  16      0.000000000000
  17      0.000000000000
  18      0.000000000000
  19      0.000000000000
  20      0.000000000000
  21      0.000000000000
  22      0.000000000000
  23      0.000000000000
  24      0.000000000000
  25      0.000000000000
  26      0.000000000000
  27      0.000000000000
  28      0.000000000000
  29      0.000000000000
  30      0.000000000000
  31      0.000000000000
  32      0.000000000000
  33      0.000000000000
  34      0.000000000000
  35      0.000000000000
  36      0.000000000000
  37      0.000000000000
  38      0.000000000000
  39      0.000000000000
  40      0.000000000000
  41      0.000000000000
  42      0.000000000000
  43      0.000000000000
  44      0.000000000000
  45      0.000000000000
  46      0.000000000000
  47      0.000000000000
  48      0.000000000000
  49      0.000000000000
  50      0.000000000000
  51      0.000000000000
  52      0.000000000000
  53      0.000000000000
  54      0.000000000000
  55      0.000000000000
  56      0.000000000000
 Ene=  -0.10957897066941E+01
 Spin= Alpha
 Occup=    0.000000
   1      0.000000000000
   2      0.000000000000
   3      0.000000000000
   4      0.000000000000
   5      0.000000000000
   6      0.000000000000
   7      0.000000000000
   8      0.000000000000
   9      0.000000000000
  10      0.000000000000
  11      0.000000000000
  12      0.000000000000
  13      0.000000000000
  14      0.000000000000
  15      0.000000000000
  16      0.000000000000
  17      0.000000000000
  18      0.000000000000
  19      0.000000000000
  20      0.000000000000
  21      0.000000000000
  22      0.000000000000
  23      0.000000000000
  24      0.000000000000
  25      0.000000000000
  26      0.000000000000
  27      0.000000000000
  28      0.000000000000
  29      0.000000000000
  30      0.000000000000
  31      0.000000000000
  32      0.000000000000
  33      0.000000000000
  34      0.000000000000
  35      0.000000000000
  36      0.000000000000
  37      0.000000000000
  38      0.000000000000
  39      0.000000000000
  40      0.000000000000
  41      0.000000000000
  42      0.000000000000
  43      0.000000000000
  44      0.000000000000
  45      0.000000000000
  46      0.000000000000
  47      0.000000000000
  48      0.000000000000
  49      0.000000000000
  50      0.000000000000
  51      0.000000000000
  52      0.000000000000
  53      0.000000000000
  54      0.000000000000
  55      0.000000000000
  56      0.000000000000
 Ene=  -0.10854091129667E+01
 Spin= Alpha
 Occup=    1.000000
   1      0.071237709806
   2     -0.149226472847
   3     -0.018154680237
   4     -0.001866858795
   5      0.245534573188
   6      0.005984711856
   7     -0.000160071659
   8      0.012907375809
   9      0.000245533464
  10     -0.010378738633
  11      0.001586840956
  12     -0.023032327630
  13      0.022763191708
  14      0.002397190542
  15     -0.181505563329
  16      0.372458736755
  17      0.223193460474
  18     -0.001268209198
  19     -0.072367045427
  20     -0.003726620227
  21     -0.000397605281
  22     -0.020828104812
  23     -0.001104797276
  24     -0.001053734466
  25     -0.000152509983
  26      0.006221435989
  27      0.000500546244
  28      0.000082271989
  29      0.155444238910
  30     -0.310475927223
  31     -0.182445257399
  32      0.060936634271
  33     -0.027431394672
  34      0.066844548685
  35      0.017901919784
  36     -0.006221754140
  37      0.019697087994
  38     -0.001544129389
  39      0.003768643344
  40     -0.005808964430
  41      0.003654876729
  42      0.004225188027
  43      0.148275181523
  44     -0.296118560686
  45     -0.174176758351
  46     -0.058842093319
  47     -0.018735329413
  48     -0.066097031092
  49     -0.017372178880
  50     -0.003664975404
  51     -0.019453639050
  52     -0.001585786805
  53     -0.002924777979
  54     -0.005958459665
  55      0.004216500221
  56     -0.003196254835
 Ene=  -0.10708769315172E+01
 Spin= Alpha
 Occup=   -0.000000
   1      0.000000000000
   2      0.000000000000
   3      0.000000000000
   4      0.000000000000
   5      0.000000000000
   6      0.000000000000
   7      0.000000000000
   8      0.000000000000
   9      0.000000000000
  10      0.000000000000
  11      0.000000000000
  12      0.000000000000
  13      0.000000000000
  14      0.000000000000
  15      0.000000000000
  16      0.000000000000
  17      0.000000000000
  18      0.000000000000
  19      0.000000000000
  20      0.000000000000
  21      0.000000000000
  22      0.000000000000
  23      0.000000000000
  24      0.000000000000
  25      0.000000000000
  26      0.000000000000
  27      0.000000000000
  28      0.000000000000
  29      0.000000000000
  30      0.000000000000
  31      0.000000000000
  32      0.000000000000
  33      0.000000000000
  34      0.000000000000
  35      0.000000000000
  36      0.000000000000
  37      0.000000000000
  38      0.000000000000
  39      0.000000000000
  40      0.000000000000
  41      0.000000000000
  42      0.000000000000
  43      0.000000000000
  44      0.000000000000
  45      0.000000000000
  46      0.000000000000
  47      0.000000000000
  48      0.000000000000
  49      0.000000000000
  50      0.000000000000
  51      0.000000000000
  52      0.000000000000
  53      0.000000000000
  54      0.000000000000
  55      0.000000000000
  56      0.000000000000
 Ene=  -0.10690953942800E+01
 Spin= Alpha
 Occup=    1.000000
   1      0.001726360197
   2     -0.003578779817
   3     -0.000471452263
   4      0.196721957677
   5     -0.006201723148
   6      0.218608855148
   7      0.014820191194
   8     -0.000509557091
   9      0.016467707636
  10     -0.000329805722
  11     -0.015123984501
  12     -0.001164054903
  13      0.001844021589
  14     -0.016761952118
  15     -0.002757829790
  16      0.005664178793
  17      0.003433161127
  18      0.034115017710
  19     -0.002835012168
  20      0.037853779582
  21      0.013024459327
  22     -0.000988939964
  23      0.014454882563
  24     -0.000063678251
  25     -0.003849203083
  26     -0.000096239094
  27      0.000380758662
  28     -0.004264712333
  29     -0.190559204313
  30      0.381721105024
  31      0.223318310466
  32     -0.059914846995
  33      0.067561210656
  34     -0.064386200129
  35     -0.015879210937
  36      0.020614248881
  37     -0.016973431718
  38     -0.000120822364
  39     -0.006837527485
  40      0.004220277764
  41     -0.000233252768
  42     -0.007474378445
  43      0.196694917400
  44     -0.393976927647
  45     -0.230621506582
  46     -0.063166848628
  47     -0.062062241480
  48     -0.072336837877
  49     -0.016917099362
  50     -0.019117210478
  51     -0.019456959990
  52     -0.000061867364
  53     -0.006560044675
  54     -0.005121842608
  55      0.001645974506
  56     -0.007383533097
 Ene=  -0.62690942698207E+00
 Spin= Alpha
 Occup=    1.000000
   1      0.149463946478
   2     -0.368327480062
   3     -0.019823848688
   4     -0.001809768187
   5     -0.168651174213
   6     -0.007500417061
   7     -0.000077141319
   8     -0.015361086064
   9     -0.000629480846
  10      0.004058424095
  11      0.000090595844
  12     -0.005049604343
  13     -0.005940350495
  14     -0.000466341721
  15     -0.131410436807
  16      0.276006819078
  17      0.298699676299
  18      0.003691475411
  19      0.431353533723
  20      0.018022483779
  21      0.001818293803
  22      0.210134222092
  23      0.008807020436
  24      0.010971231832
  25     -0.000566222765
  26      0.006158498485
  27     -0.020244095482
  28     -0.001715693535
  29     -0.077667551896
  30      0.161120303905
  31      0.156947526162
  32      0.074906399989
  33     -0.107054269257
  34      0.079779740868
  35      0.037400754584
  36     -0.055332673390
  37      0.039780013933
  38      0.000640127001
  39      0.004366886060
  40     -0.003477763779
  41     -0.000650602643
  42      0.004688688723
  43     -0.077216938583
  44      0.160173561450
  45      0.155896326345
  46     -0.075315874071
  47     -0.098354872310
  48     -0.087025367246
  49     -0.037613306016
  50     -0.050975291239
  51     -0.043514210372
  52      0.000515307280
  53     -0.004050301124
  54     -0.003833747042
  55      0.000197904059
  56     -0.004640985576
 Ene=  -0.61414918772243E+00
 Spin= Alpha
 Occup=   -0.000000
   1      0.000000000000
   2      0.000000000000
   3      0.000000000000
   4      0.000000000000
   5      0.000000000000
   6      0.000000000000
   7      0.000000000000
   8      0.000000000000
   9      0.000000000000
  10      0.000000000000
  11      0.000000000000
  12      0.000000000000
  13      0.000000000000
  14      0.000000000000
  15      0.000000000000
  16      0.000000000000
  17      0.000000000000
  18      0.000000000000
  19      0.000000000000
  20      0.000000000000
  21      0.000000000000
  22      0.000000000000
  23      0.000000000000
  24      0.000000000000
  25      0.000000000000
  26      0.000000000000
  27      0.000000000000
  28      0.000000000000
  29      0.000000000000
  30      0.000000000000
  31      0.000000000000
  32      0.000000000000
  33      0.000000000000
  34      0.000000000000
  35      0.000000000000
  36      0.000000000000
  37      0.000000000000
  38      0.000000000000
  39      0.000000000000
  40      0.000000000000
  41      0.000000000000
  42      0.000000000000
  43      0.000000000000
  44      0.000000000000
  45      0.000000000000
  46      0.000000000000
  47      0.000000000000
  48      0.000000000000
  49      0.000000000000
  50      0.000000000000
  51      0.000000000000
  52      0.000000000000
  53      0.000000000000
  54      0.000000000000
  55      0.000000000000
  56      0.000000000000
 Ene=  -0.58021701949152E+00
 Spin= Alpha
 Occup=    1.000000
   1     -0.000389459717
   2      0.000945480962
   3     -0.000030872971
   4      0.189502594992
   5     -0.013282309586
   6      0.210355192545
   7      0.032348656737
   8     -0.002194480933
   9      0.035912813589
  10      0.000301912714
  11      0.017936850961
  12      0.000995048586
  13     -0.001891123214
  14      0.019885308261
  15     -0.000564026677
  16      0.001091293387
  17      0.001761610782
  18      0.287959087096
  19     -0.012490138871
  20      0.319892376256
  21      0.170283570151
  22     -0.007748293496
  23      0.189155308986
  24     -0.000127426390
  25     -0.013423505064
  26     -0.000650652886
  27      0.001227538473
  28     -0.014890607524
  29      0.091088602871
  30     -0.187087835719
  31     -0.216239464583
  32     -0.116667274806
  33      0.184657098072
  34     -0.123661405700
  35     -0.055193183672
  36      0.102961422418
  37     -0.057992332500
  38     -0.001843660250
  39     -0.006117192945
  40      0.006164461429
  41      0.002276662744
  42     -0.006430312262
  43     -0.089671619589
  44      0.184140043193
  45      0.212829065511
  46     -0.115700655803
  47     -0.171847650630
  48     -0.134367063863
  49     -0.054748368656
  50     -0.096937308978
  51     -0.064090502557
  52      0.001724231950
  53     -0.005655262973
  54     -0.006531623943
  55     -0.001203606845
  56     -0.006620628173
 Ene=  -0.57472972767987E+00
 Spin= Alpha
 Occup=   -0.000000
   1      0.000000000000
   2      0.000000000000
   3      0.000000000000
   4      0.000000000000
   5      0.000000000000
   6      0.000000000000
   7      0.000000000000
   8      0.000000000000
   9      0.000000000000
  10      0.000000000000
  11      0.000000000000
  12      0.000000000000
  13      0.000000000000
  14      0.000000000000
  15      0.000000000000
  16      0.000000000000
  17      0.000000000000
  18      0.000000000000
  19      0.000000000000
  20      0.000000000000
  21      0.000000000000
  22      0.000000000000
  23      0.000000000000
  24      0.000000000000
  25      0.000000000000
  26      0.000000000000
  27      0.000000000000
  28      0.000000000000
  29      0.000000000000
  30      0.000000000000
  31      0.000000000000
  32      0.000000000000
  33      0.000000000000
  34      0.000000000000
  35      0.000000000000
  36      0.000000000000
  37      0.000000000000
  38      0.000000000000
  39      0.000000000000
  40      0.000000000000
  41      0.000000000000
  42      0.000000000000
  43      0.000000000000
  44      0.000000000000
  45      0.000000000000
  46      0.000000000000
  47      0.000000000000
  48      0.000000000000
  49      0.000000000000
  50      0.000000000000
  51      0.000000000000
  52      0.000000000000
  53      0.000000000000
  54      0.000000000000
  55      0.000000000000
  56      0.000000000000
 Ene=  -0.56855689649306E+00
 Spin= Alpha
 Occup=    1.000000
   1      0.000067179869
   2     -0.000155489790
   3     -0.000066838074
   4      0.289127651111
   5      0.008618144750
   6     -0.259927183703
   7      0.119535842600
   8      0.003521768909
   9     -0.107467845381
  10      0.000299980096
  11      0.008909756902
  12      0.000308793078
  13      0.000681427692
  14     -0.007991299512
  15      0.000020460716
  16     -0.000039980740
  17     -0.000068834762
  18      0.282128749002
  19      0.008076799270
  20     -0.253648401810
  21      0.161715483580
  22      0.004642350338
  23     -0.145389532131
  24     -0.000229062733
  25     -0.016717832313
  26     -0.000567567914
  27     -0.001096889500
  28      0.015007080292
  29     -0.000028029851
  30      0.000060190366
  31      0.000050662387
  32      0.171180097810
  33      0.005096174043
  34     -0.153820854917
  35      0.093901564243
  36      0.002800776406
  37     -0.084371276907
  38     -0.012627026606
  39      0.005995169128
  40     -0.001348266828
  41     -0.006918522538