[Molden Format]
[Title]
generated by TRESC, imaginary part2 of MOs of job O3
 
[Atoms] AU
 O   1   8   -4.5402454961    7.2177128343   -2.7178598716
 O   2   8   -2.2158043353    7.0339313734   -2.7178598716
 O   3   8   -5.4895719187    9.3477159757   -2.7178598716
[GTO]
  1 0
 s  5 1.0
     2256.4894524000        0.0059167515
      338.4991392200        0.0411156308
       76.9063833050        0.1812996088
       21.4088621130        0.4670469627
        6.6523625585        0.4440133421
 s  1 1.0
        0.8121693602        1.0000000000
 s  1 1.0
        0.2558870496        1.0000000000
 p  3 1.0
       17.7535366450        0.0431495830
        3.8671566736        0.2292558699
        1.0487786113        0.5099918107
 p  1 1.0
        0.2765100171        1.0000000000
 d  1 1.0
        1.2000000000        1.0000000000
 
  2 0
 s  5 1.0
     2256.4894524000        0.0059167515
      338.4991392200        0.0411156308
       76.9063833050        0.1812996088
       21.4088621130        0.4670469627
        6.6523625585        0.4440133421
 s  1 1.0
        0.8121693602        1.0000000000
 s  1 1.0
        0.2558870496        1.0000000000
 p  3 1.0
       17.7535366450        0.0431495830
        3.8671566736        0.2292558699
        1.0487786113        0.5099918107
 p  1 1.0
        0.2765100171        1.0000000000
 d  1 1.0
        1.2000000000        1.0000000000
 
  3 0
 s  5 1.0
     2256.4894524000        0.0059167515
      338.4991392200        0.0411156308
       76.9063833050        0.1812996088
       21.4088621130        0.4670469627
        6.6523625585        0.4440133421
 s  1 1.0
        0.8121693602        1.0000000000
 s  1 1.0
        0.2558870496        1.0000000000
 p  3 1.0
       17.7535366450        0.0431495830
        3.8671566736        0.2292558699
        1.0487786113        0.5099918107
 p  1 1.0
        0.2765100171        1.0000000000
 d  1 1.0
        1.2000000000        1.0000000000
 
[5D]
[7F]
[9G]
[MO]
 Ene=   0.94631961392582E+00
 Spin= Alpha
 Occup=    0.000000
   1     -0.000001568859
   2      0.000011421205
   3     -0.000052397302
   4      0.000268511225
   5     -0.000015707792
   6      0.000021363829
   7     -0.000517715175
   8      0.000008733329
   9     -0.000045831613
  10      0.000000684703
  11     -0.005864188941
  12      0.004144770296
  13     -0.000008409871
  14     -0.000001945507
  15     -0.000004075967
  16      0.000013919811
  17      0.000001371575
  18     -0.623428357145
  19      0.000044720055
  20      0.000008178232
  21      0.745027456304
  22     -0.000069433202
  23      0.000004042249
  24      0.000001179755
  25      0.017843589971
  26     -0.011678589783
  27     -0.000003454870
  28      0.000001306020
  29      0.000000102219
  30      0.000003664974
  31      0.000025733811
  32      0.623176718298
  33     -0.000025110346
  34     -0.000034500647
  35     -0.744444137369
  36      0.000026317652
  37      0.000031137724
  38     -0.000002862192
  39      0.016963518659
  40     -0.012900593349
  41     -0.000002350767
  42     -0.000004032250
 Ene=   0.94631961392583E+00
 Spin= Alpha
 Occup=    0.000000
   1      0.000274776825
   2     -0.002006395393
   3      0.009134420585
   4      0.000001557720
   5      0.002736698141
   6     -0.003740060592
   7     -0.000003022798
   8     -0.001549765088
   9      0.008050653606
  10     -0.000115333254
  11     -0.000033541435
  12      0.000023709617
  13      0.001465610795
  14      0.000342270440
  15      0.000710591188
  16     -0.002432612865
  17     -0.000205541698
  18     -0.003566256922
  19     -0.007771607044
  20     -0.001407407964
  21      0.004261865132
  22      0.012050782220
  23     -0.000742428435
  24     -0.000204398974
  25      0.000102068787
  26     -0.000066802955
  27      0.000600511633
  28     -0.000229748757
  29     -0.000018922695
  30     -0.000633567123
  31     -0.004530326752
  32      0.003564714896
  33      0.004371532587
  34      0.006035114251
  35     -0.004258379513
  36     -0.004590423702
  37     -0.005432647243
  38      0.000500546783
  39      0.000097040996
  40     -0.000073794303
  41      0.000411595583
  42      0.000704266545
 Ene=   0.98523703999551E+00
 Spin= Alpha
 Occup=    0.000000
   1      0.000024829962
   2     -0.000431632935
   3     -0.000408456986
   4     -0.616250808147
   5     -0.000579029296
   6     -0.000940543073
   7      1.227216702391
   8      0.000848221030
   9      0.001915308195
  10      0.000218277379
  11     -0.017376149768
  12     -0.024595689309
  13     -0.000039251322
  14      0.000107539099
  15      0.000091097773
  16     -0.000648504317
  17      0.000602530430
  18      0.450268343564
  19      0.000771590655
  20      0.000644440239
  21     -0.840398544001
  22     -0.001257110237
  23     -0.001349640346
  24      0.000084758540
  25     -0.023152600578
  26     -0.011871903165
  27     -0.000110926628
  28     -0.000060570574
  29      0.000108403681
  30     -0.000716381065
  31      0.000225410909
  32      0.450698078867
  33      0.000130436320
  34      0.000745306173
  35     -0.840837453543
  36     -0.000559654534
  37     -0.001110843648
  38      0.000092889724
  39     -0.003442883189
  40     -0.025807716884
  41      0.000110675081
  42      0.000046029496
 Ene=   0.98523703999551E+00
 Spin= Alpha
 Occup=    0.000000
   1      0.000324316581
   2     -0.005638655469
   3     -0.005341198357
   4      0.047153125712
   5     -0.007564570877
   6     -0.012290098540
   7     -0.093901909688
   8      0.011078678116
   9      0.025027429556
  10      0.002852051261
  11      0.001329554410
  12      0.001881967481
  13     -0.000512744036
  14      0.001405152794
  15      0.001190217925
  16     -0.008473416923
  17      0.007876752703
  18     -0.034452747331
  19      0.010081957587
  20      0.008420784058
  21      0.064303997477
  22     -0.016428351077
  23     -0.017635432190
  24      0.001107374897
  25      0.001771550787
  26      0.000908394616
  27     -0.001449213980
  28     -0.000791453849
  29      0.001416708006
  30     -0.009361900067
  31      0.002945880004
  32     -0.034485835209
  33      0.001705119352
  34      0.009738126015
  35      0.064337819953
  36     -0.007312635889
  37     -0.014514006291
  38      0.001213772660
  39      0.000263433487
  40      0.001974717859
  41      0.001446155893
  42      0.000601601211
 Ene=   0.10001731803620E+01
 Spin= Alpha
 Occup=    0.000000
   1      0.000264663052
   2     -0.005185140964
   3     -0.004220014041
   4     -0.017326738379
   5     -0.008071525392
   6     -0.011445793287
   7      0.034081746830
   8      0.015000911864
   9      0.021306425420
  10      0.002719956208
  11     -0.000501093965
  12     -0.000672610549
  13     -0.000474549602
  14      0.001346108037
  15      0.001174325032
  16     -0.008125325529
  17      0.004459413677
  18      0.012023773959
  19      0.008765480264
  20      0.006808994684
  21     -0.022543747378
  22     -0.012645313244
  23     -0.014401000189
  24      0.001135888103
  25     -0.000624549631
  26     -0.000349941951
  27     -0.001425226151
  28     -0.000582279567
  29      0.001174834164
  30     -0.008127437625
  31      0.004415967941
  32      0.013562047913
  33      0.003482860830
  34      0.010539683460
  35     -0.024322445586
  36     -0.009335296643
  37     -0.016702824268
  38      0.001137630556
  39     -0.000075499760
  40     -0.000739591627
  41      0.001474736052
  42      0.000448365587
 Ene=   0.10001731803620E+01
 Spin= Alpha
 Occup=    0.000000
   1     -0.010269505724
   2      0.201192191421
   3      0.163740172126
   4     -0.000446744338
   5      0.313185365367
   6      0.444112613058
   7      0.000878797329
   8     -0.582052233212
   9     -0.826721876034
  10     -0.105538164985
  11     -0.000012944756
  12     -0.000017342276
  13      0.018413109692
  14     -0.052231037668
  15     -0.045565546508
  16      0.315274575175
  17     -0.173034265507
  18      0.000309908847
  19     -0.340113402730
  20     -0.264199150501
  21     -0.000581132173
  22      0.490657842586
  23      0.558780219712
  24     -0.044074035734
  25     -0.000016097239
  26     -0.000009022948
  27      0.055300772958
  28      0.022593488969
  29     -0.045584962861
  30      0.315354441661
  31     -0.171340893196
  32      0.000349913804
  33     -0.135139192204
  34     -0.408955131482
  35     -0.000627406095
  36      0.362222177610
  37      0.648091082778
  38     -0.044141716543
  39     -0.000001944340
  40     -0.000019077480
  41     -0.057221850369
  42     -0.017397275237
 Ene=   0.10742766457603E+01
 Spin= Alpha
 Occup=    0.000000
   1     -0.000005097577
   2      0.000002815089
   3     -0.000159089091
   4      0.001803191589
   5     -0.003168589068
   6      0.002094533991
   7     -0.003222586485
   8      0.012149796779
   9     -0.008380882279
  10      0.000026014190
  11      0.000027167359
  12      0.000089169359
  13     -0.000547259833
  14     -0.000177938210
  15     -0.000094866681
  16      0.000506523352
  17     -0.007877814437
  18     -0.002544755354
  19      0.000530835537
  20     -0.002930054080
  21      0.003598518521
  22      0.003508801252
  23      0.005553169876
  24      0.000274927504
  25      0.000100427328
  26      0.000007813307
  27     -0.000374102199
  28      0.000544647062
  29      0.000107964796
  30     -0.000618232915
  31      0.008021672053
  32      0.000157816056
  33      0.002959753096
  34      0.000676507478
  35      0.000623764206
  36     -0.004141226496
  37     -0.005502961506
  38     -0.000256718763
  39      0.000060998532
  40      0.000029942928
  41      0.000076941709
  42     -0.000651337893
 Ene=   0.10742766457603E+01
 Spin= Alpha
 Occup=    0.000000
   1     -0.000149619318
   2      0.000082899832
   3     -0.004668892185
   4     -0.000061438487
   5     -0.092990392713
   6      0.061470439586
   7      0.000109811524
   8      0.356567622278
   9     -0.245960563312
  10      0.000763291903
  11     -0.000000928630
  12     -0.000003039574
  13     -0.016060823687
  14     -0.005222165477
  15     -0.002784216588
  16      0.014865885909
  17     -0.231195948484
  18      0.000086697436
  19      0.015578568457
  20     -0.085990085848
  21     -0.000122600446
  22      0.102975510119
  23      0.162972727713
  24      0.008068386282
  25     -0.000003422124
  26     -0.000000267758
  27     -0.010978993118
  28      0.015984197392
  29      0.003168532840
  30     -0.018143662054
  31      0.235417662191
  32     -0.000005319562
  33      0.086861562400
  34      0.019853194840
  35     -0.000021317277
  36     -0.121534672358
  37     -0.161498161097
  38     -0.007534110754
  39     -0.000002079430
  40     -0.000001022722
  41      0.002257987899
  42     -0.019115298984
 Ene=   0.11998242515548E+01
 Spin= Alpha
 Occup=    0.000000
   1     -0.211905103415
   2      1.625012630607
   3     -5.136668526279
   4      0.000004635435
   5      0.138267018250
   6      0.195609692858
   7     -0.000003892845
   8     -1.015461611118
   9     -1.432774439774
  10     -0.063805152089
  11      0.000000360452
  12      0.000000087627
  13      0.001539507194
  14     -0.004786128207
  15      0.087950347562
  16     -0.650304632824
  17      2.546659744916
  18      0.000004584514
  19      0.043742849981
  20      0.158006895023
  21     -0.000003365382
  22     -1.372513760054
  23      0.173209397838
  24     -0.066237209411
  25     -0.000000432132
  26     -0.000000076609
  27      0.034902250133
  28      0.020686545484
  29      0.087585290876
  30     -0.647866866777
  31      2.540373475302
  32      0.000002345607
  33      0.134971379376
  34      0.093740755553
  35     -0.000000914654
  36      0.619557372610
  37     -1.232978870716
  38     -0.066360779937
  39     -0.000000039651
  40     -0.000000195595
  41     -0.040131760956
  42     -0.005983973927
 Ene=   0.11998242515548E+01
 Spin= Alpha
 Occup=    0.000000
   1      0.002803890005
   2     -0.021501876875
   3      0.067967477683
   4      0.000353571554
   5     -0.001829518660
   6     -0.002588297697
   7     -0.000301333047
   8      0.013436336365
   9      0.018958291897
  10      0.000844261449
  11      0.000026961136
  12      0.000007559651
  13     -0.000020371697
  14      0.000063326198
  15     -0.001163736745
  16      0.008604671493
  17     -0.033696842855
  18      0.000346026940
  19     -0.000578786195
  20     -0.002090731616
  21     -0.000251604805
  22      0.018160795669
  23     -0.002291868599
  24      0.000876440081
  25     -0.000032031701
  26     -0.000005524193
  27     -0.000461820374
  28     -0.000273719870
  29     -0.001158916935
  30      0.008572484765
  31     -0.033613861229
  32      0.000173645964
  33     -0.001785906221
  34     -0.001240363932
  35     -0.000063554822
  36     -0.008197902997
  37      0.016314602481
  38      0.000878074303
  39     -0.000003171207
  40     -0.000019606452
  41      0.000531018440
  42      0.000079181210
 Ene=   0.12225184161394E+01
 Spin= Alpha
 Occup=    0.000000
   1     -0.001093824478
   2      0.008373719586
   3     -0.027779092376
   4      0.000001515094
   5      0.148123827163
   6     -0.102700347460
   7     -0.000000334541
   8     -1.325770176917
   9      0.925195437387
  10     -0.000273713398
  11      0.000000203819
  12      0.000000122584
  13     -0.068446389515
  14     -0.024145401150
  15      0.102575715678
  16     -0.701959412199
  17      1.812952480961
  18      0.000003249313
  19      0.171476969865
  20     -0.148472200076
  21     -0.000003010352
  22     -1.062923040146
  23      0.165032990869
  24      0.032404960721
  25     -0.000000251834
  26     -0.000000051015
  27     -0.002276346458
  28      0.015707923447
  29     -0.101699824238
  30      0.695329720562
  31     -1.785572579877
  32      0.000002033224
  33      0.199116092535
  34     -0.110142783453
  35     -0.000001732635
  36     -0.504114266213
  37      0.932621327198
  38     -0.033119843847
  39      0.000000015186
  40     -0.000000085463
  41      0.007714761692
  42     -0.013766625546
 Ene=   0.12225184161394E+01
 Spin= Alpha
 Occup=    0.000000
   1     -0.000007684187
   2      0.000058829166
   3     -0.000195149064
   4     -0.000217732343
   5      0.001039637751
   6     -0.000720785893
   7      0.000051761299
   8     -0.009305176136
   9      0.006493555577
  10     -0.000001925943
  11     -0.000019404285
  12     -0.000017084293
  13     -0.000480403491
  14     -0.000169469071
  15      0.000719947756
  16     -0.004926842135
  17      0.012724598610
  18     -0.000460359589
  19      0.001203543648
  20     -0.001042064760
  21      0.000421983907
  22     -0.007460353574
  23      0.001158321886
  24      0.000227438963
  25      0.000033152042
  26      0.000007371344
  27     -0.000015975560
  28      0.000110249612
  29     -0.000713796693
  30      0.004880283966
  31     -0.012532261139
  32     -0.000291446311
  33      0.001397536466
  34     -0.000773057524
  35      0.000248527553
  36     -0.003538189776
  37      0.006545725739
  38     -0.000232461609
  39     -0.000002051374
  40      0.000011728141
  41      0.000054143431
  42     -0.000096626846
 Ene=   0.19557654138637E+01
 Spin= Alpha
 Occup=    0.000000
   1      0.000002115859
   2     -0.000064519908
   3      0.000260095589
   4     -0.000012245245
   5      0.000006436686
   6      0.000009197064
   7      0.000004540354
   8     -0.000063116444
   9      0.000179100759
  10     -0.000005853739
  11      0.058977582344
  12     -0.041612443046
  13     -0.000007373854
  14     -0.000091055181
  15      0.000002344376
  16     -0.000007717212
  17     -0.000009384052
  18     -0.005995972941
  19      0.000016394238
  20     -0.000037721743
  21     -0.008539319369
  22      0.000000623965
  23      0.000006238197
  24      0.000008971345
  25     -0.047687664801
  26     -0.002941486325
  27      0.000006727021
  28      0.000090339167
  29      0.000003946689
  30      0.000013990672
  31     -0.000236827442
  32      0.005982055890
  33     -0.000024475911
  34      0.000082165419
  35      0.008535577523
  36     -0.000039178652
  37      0.000091470959
  38      0.000080473301
  39     -0.013162540722
  40      0.045883976007
  41     -0.000000849078
  42      0.000004375336
 Ene=   0.19557654138637E+01
 Spin= Alpha
 Occup=    0.000000
   1      0.000000794408
   2     -0.000024347385
   3      0.000098215063
   4      0.000032378060
   5      0.000002428911
   6      0.000003463938
   7     -0.000011986339
   8     -0.000023869696
   9      0.000067679734
  10     -0.000002218142
  11     -0.156034287052
  12      0.110092073080
  13     -0.000002800115
  14     -0.000034378231
  15      0.000000898632
  16     -0.000002982546
  17     -0.000003453691
  18      0.015863254619
  19      0.000006184203
  20     -0.000014250180
  21      0.022592088684
  22      0.000000213263
  23      0.000002354054
  24      0.000003396141
  25      0.126165063165
  26      0.007782181275
  27      0.000002525458
  28      0.000034120803
  29      0.000001487455
  30      0.000005305464
  31     -0.000089498334
  32     -0.015826451030
  33     -0.000009247893
  34      0.000031036596
  35     -0.022582183538
  36     -0.000014811722
  37      0.000034567042
  38      0.000030400681
  39      0.034823533233
  40     -0.121393057308
  41     -0.000000316202
  42      0.000001650605
 Ene=   0.20459742884939E+01
 Spin= Alpha
 Occup=    0.000000
   1     -0.000019402289
   2      0.000164659822
   3     -0.000384399390
   4      0.000055500603
   5     -0.000018302656
   6     -0.000025875789
   7      0.000057024057
   8     -0.000107038017
   9     -0.000151481241
  10     -0.000227518055
  11     -0.000387936906
  12     -0.000678929354
  13     -0.000156186216
  14      0.000441117056
  15     -0.000011922771
  16      0.000038279137
  17      0.000141795453
  18      0.000011775541
  19     -0.000069840355
  20     -0.000024184892
  21      0.000027508872
  22     -0.000057180237
  23     -0.000015709898
  24     -0.000067881991
  25      0.000316296158
  26     -0.000239949939
  27     -0.000103016352
  28     -0.000284861065
  29     -0.000011932409
  30      0.000038322782
  31      0.000141718462
  32     -0.000025080593
  33      0.000000600323
  34     -0.000073913891
  35      0.000086469212
  36      0.000004195240
  37     -0.000059126654
  38     -0.000067842900
  39     -0.000263946838
  40      0.000330238111
  41      0.000259279260
  42     -0.000156476085
 Ene=   0.20459742884939E+01
 Spin= Alpha
 Occup=    0.000000
   1     -0.025889216326
   2      0.219709170849
   3     -0.512918018879
   4     -0.000000031716
   5     -0.024422845500
   6     -0.034517608905
   7     -0.000000033234
   8     -0.142818111832
   9     -0.202127507247
  10     -0.303547151601
  11      0.000000258844
  12      0.000000447399
  13     -0.208373197542
  14      0.588550888053
  15     -0.015906782545
  16      0.051065409129
  17      0.189208771840
  18     -0.000000008456
  19     -0.093178823515
  20     -0.032265269659
  21     -0.000000019334
  22     -0.076306328847
  23     -0.020957135350
  24     -0.090568791319
  25     -0.000000216897
  26      0.000000167733
  27     -0.137441340071
  28     -0.380068388879
  29     -0.015922271479
  30      0.051138215696
  31      0.189098496043
  32      0.000000022329
  33      0.000806753843
  34     -0.098622054007
  35     -0.000000064013
  36      0.005599252114
  37     -0.078893530619
  38     -0.090502380773
  39      0.000000167188
  40     -0.000000186441
  41      0.345940585634
  42     -0.208770594006
 Ene=   0.21350901620541E+01
 Spin= Alpha
 Occup=    0.000000
   1     -0.000005977244
   2      0.000052855286
   3     -0.000129132031
   4      0.061096689814
   5     -0.000000965686
   6     -0.000014943210
   7      0.041574788817
   8     -0.000038598607
   9     -0.000044551594
  10     -0.000039715889
  11     -0.333196611537
  12     -0.471562196654
  13     -0.000034222529
  14      0.000110063580
  15     -0.000003542159
  16      0.000011610326
  17      0.000048659023
  18      0.030115253675
  19     -0.000020564991
  20     -0.000009269099
  21      0.016005250425
  22     -0.000020527191
  23     -0.000000064703
  24     -0.000003738626
  25      0.272584593160
  26     -0.172441441518
  27     -0.000020823209
  28     -0.000069803938
  29     -0.000003933427
  30      0.000010563785
  31      0.000048847741
  32      0.030076160058
  33      0.000001478893
  34     -0.000029126346
  35      0.016051557791
  36      0.000009964433
  37     -0.000016765026
  38     -0.000024147569
  39     -0.253520443355
  40      0.199349180881
  41      0.000073547145
  42     -0.000041701085
 Ene=   0.21350901620541E+01
 Spin= Alpha
 Occup=    0.000000
   1      0.000032977697
   2     -0.000291485303
   3      0.000711923467
   4      0.011093293441
   5      0.000005512206
   6      0.000082281111
   7      0.007548719023
   8      0.000212110763
   9      0.000245985134
  10      0.000219170333
  11     -0.060498343864
  12     -0.085621310544
  13      0.000188368345
  14     -0.000606646271
  15      0.000019627854
  16     -0.000064540823
  17     -0.000267295785
  18      0.005468003699
  19      0.000113224558
  20      0.000051083401
  21      0.002906068957
  22      0.000112896034
  23      0.000000338086
  24      0.000020870486
  25      0.049493045752
  26     -0.031310111421
  27      0.000114613841
  28      0.000384820146
  29      0.000021640922
  30     -0.000057979157
  31     -0.000269961508
  32      0.005460908553
  33     -0.000008139874
  34      0.000160474807
  35      0.002914473702
  36     -0.000055039073
  37      0.000092773476
  38      0.000133105596
  39     -0.046031571227
  40      0.036195756483
  41     -0.000405243109
  42      0.000229769249
 Ene=   0.25037888856818E+01
 Spin= Alpha
 Occup=    0.000000
   1      0.002007448543
   2     -0.014131561010
   3      0.029429435844
   4      0.000000006193
   5      0.157380585156
   6     -0.116042579064
   7      0.000000018593
   8     -0.537782894374
   9      0.397657621144
  10     -0.009593161205
  11     -0.000000000510
  12      0.000000005362
  13     -0.303625326192
  14     -0.112215779655
  15     -0.026421155352
  16      0.113070540642
  17      0.262836535306
  18     -0.000000000080
  19     -0.132641322686
  20      0.051403044632
  21     -0.000000008188
  22     -0.097558716304
  23     -0.106010639136
  24     -0.209000322691
  25      0.000000023378
  26      0.000000212500
  27     -0.245280421932
  28      0.289728647638
  29      0.027491827786
  30     -0.116222994278
  31     -0.285240593060
  32     -0.000000004269
  33     -0.094853569852
  34      0.114685282354
  35     -0.000000010110
  36      0.058770700537
  37      0.134429081844
  38      0.182852270184
  39      0.000000038614
  40      0.000000095846
  41     -0.009757433059
  42     -0.374572080351
 Ene=   0.25037888856818E+01
 Spin= Alpha
 Occup=    0.000000
   1     -0.000000341042
   2      0.000002407071
   3     -0.000005049741
   4      0.000077749076
   5     -0.000017369876
   6      0.000013103527
   7     -0.000019039467
   8      0.000059284882
   9     -0.000044917382
  10      0.000001614366
  11      0.000017991183
  12     -0.000045075290
  13      0.000033679896
  14      0.000012732455
  15      0.000002909114
  16     -0.000012497447
  17     -0.000028517287
  18     -0.000067838747
  19      0.000014546295
  20     -0.000005731632
  21      0.000058986485
  22      0.000010535052
  23      0.000011965331
  24      0.000024017954
  25      0.000013339565
  26      0.001368083921
  27      0.000027356325
  28     -0.000032357114
  29     -0.000003088773
  30      0.000013020558
  31      0.000032378998
  32     -0.000023402876
  33      0.000010607689
  34     -0.000012953953
  35     -0.000009146849
  36     -0.000006280112
  37     -0.000015153878
  38     -0.000019504160
  39     -0.001057332064
  40     -0.000128703690
  41      0.000001115345
  42      0.000041475305
 Ene=   0.25086987499861E+01
 Spin= Alpha
 Occup=    0.000000
   1      0.000023481317
   2     -0.000166834470
   3      0.000353739924
   4      0.000072241930
   5     -0.000031080900
   6     -0.000035572004
   7      0.000206793128
   8      0.000113296626
   9      0.000131159774
  10     -0.000110136725
  11     -0.000165297856
  12     -0.000089850568
  13      0.000025644289
  14     -0.000048693194
  15      0.000006833985
  16     -0.000020573587
  17     -0.000142951864
  18      0.000037781467
  19      0.000045349975
  20      0.000001236245
  21     -0.000089221242
  22      0.000061078574
  23     -0.000031977654
  24     -0.000152871537
  25      0.000458586044
  26      0.001596401707
  27     -0.000009368693
  28      0.000022280542
  29      0.000005537053
  30     -0.000015118842
  31     -0.000128805445
  32      0.000008766917
  33     -0.000009197718
  34      0.000037826174
  35     -0.000121975763
  36     -0.000053665534
  37      0.000040013685
  38     -0.000163053077
  39      0.000234256436
  40      0.000732307440
  41     -0.000006275488
  42      0.000041787290
 Ene=   0.25086987499861E+01
 Spin= Alpha
 Occup=    0.000000
   1      0.018971775475
   2     -0.134793606152
   3      0.285797058065
   4     -0.000000091506
   5     -0.024816344714
   6     -0.028952343210
   7     -0.000000274708
   8      0.090514429170
   9      0.106689014419
  10     -0.088991735382
  11      0.000000220014
  12      0.000000100344
  13      0.020162660382
  14     -0.039537587889
  15      0.005472698871
  16     -0.016416513983
  17     -0.114975181748
  18     -0.000000050068
  19      0.036393117559
  20      0.001097809963
  21      0.000000117456
  22      0.049147991354
  23     -0.026030886488
  24     -0.123894412313
  25     -0.000000596256
  26     -0.000002092774
  27     -0.008025542736
  28      0.018536172070
  29      0.004522641419
  30     -0.012422663750
  31     -0.104584216865
  32     -0.000000017004
  33     -0.007606424036
  34      0.030762039475
  35      0.000000168225
  36     -0.043239431287
  37      0.032578879036
  38     -0.131357585176
  39     -0.000000332706
  40     -0.000000972078
  41     -0.005082027450
  42      0.033045709768
 Ene=   0.25543662929258E+01
 Spin= Alpha
 Occup=    0.000000
   1     -0.000002783012
   2      0.000019666839
   3     -0.000040096673
   4      0.000005483895
   5      0.000001110577
   6      0.000006449827
   7     -0.000063792126
   8     -0.000004259715
   9     -0.000021786419
  10      0.000015911447
  11     -0.007436329476
  12      0.005128836164
  13      0.000003278176
  14      0.000005325748
  15     -0.000000315405
  16      0.000000233439
  17      0.000012395911
  18     -0.017783426837
  19     -0.000003074927
  20     -0.000001030992
  21      0.025789901872
  22     -0.000005445476
  23      0.000006258402
  24      0.000014433326
  25     -0.035702418674
  26      0.565374695609
  27      0.000000751551
  28     -0.000007475166
  29     -0.000001308687
  30      0.000005046570
  31      0.000017636576
  32      0.017765541495
  33      0.000003580841
  34     -0.000006851827
  35     -0.025703607670
  36      0.000004205175
  37     -0.000005507582
  38      0.000017274450
  39     -0.545321784205
  40     -0.155404481955
  41     -0.000000331462
  42      0.000002225635
 Ene=   0.25543662929258E+01
 Spin= Alpha
 Occup=    0.000000
   1     -0.000146126485
   2      0.001032809088
   3     -0.002104746235
   4     -0.000000104717
   5      0.000059397147
   6      0.000338615878
   7      0.000001229489
   8     -0.000225141195
   9     -0.001143839972
  10      0.000837139301
  11      0.000141162897
  12     -0.000097356590
  13      0.000170567232
  14      0.000278964332
  15     -0.000016987561
  16      0.000014601995
  17      0.000649238215
  18      0.000337578455
  19     -0.000162989924
  20     -0.000053947182
  21     -0.000489568358
  22     -0.000284359968
  23      0.000328276542
  24      0.000762247277
  25      0.000677752845
  26     -0.010732185241
  27      0.000040134196
  28     -0.000391809417
  29     -0.000068717925
  30      0.000264818026
  31      0.000926030066
  32     -0.000337231344
  33      0.000187371282
  34     -0.000359578859
  35      0.000487909202
  36      0.000222029769
  37     -0.000289177767
  38      0.000904354016
  39      0.010351624145
  40      0.002950016110
  41     -0.000015305579
  42      0.000117200806
 Ene=   0.25736532682372E+01
 Spin= Alpha
 Occup=    0.000000
   1     -0.000016613940
   2      0.000113942572
   3     -0.000210888662
   4     -0.002178793454
   5      0.000050490197
   6      0.000005684576
   7     -0.094736084020
   8     -0.000192408619
   9      0.000005877912
  10      0.000091983396
  11      0.043533019248
  12      0.061760442969
  13     -0.000080639676
  14      0.000014658288
  15     -0.000014626490
  16      0.000066170094
  17      0.000113513571
  18     -0.023922077804
  19     -0.000074421353
  20      0.000024410367
  21      0.051863158048
  22     -0.000033740701
  23     -0.000029794576
  24      0.000177643371
  25     -0.192041133699
  26     -0.443702901335
  27      0.000032572891
  28      0.000089899671
  29      0.000003318546
  30     -0.000024267758
  31      0.000032984370
  32     -0.023961919651
  33     -0.000029187669
  34     -0.000003972014
  35      0.051875665687
  36      0.000073267000
  37      0.000006999273
  38     -0.000019102823
  39     -0.353092309446
  40     -0.328919720969
  41      0.000120041622
  42     -0.000050379955
 Ene=   0.25736532682372E+01
 Spin= Alpha
 Occup=    0.000000
   1     -0.000121212866
   2      0.000831262046
   3     -0.001537619009
   4      0.000295842212
   5      0.000370331837
   6      0.000040400454