[Molden Format]
[Title]
generated by TRESC, imaginary part1 of MOs of job O3
 
[Atoms] AU
 O   1   8   -4.5402454961    7.2177128343   -2.7178598716
 O   2   8   -2.2158043353    7.0339313734   -2.7178598716
 O   3   8   -5.4895719187    9.3477159757   -2.7178598716
[GTO]
  1 0
 s  5 1.0
     2256.4894524000        0.0059167515
      338.4991392200        0.0411156308
       76.9063833050        0.1812996088
       21.4088621130        0.4670469627
        6.6523625585        0.4440133421
 s  1 1.0
        0.8121693602        1.0000000000
 s  1 1.0
        0.2558870496        1.0000000000
 p  3 1.0
       17.7535366450        0.0431495830
        3.8671566736        0.2292558699
        1.0487786113        0.5099918107
 p  1 1.0
        0.2765100171        1.0000000000
 d  1 1.0
        1.2000000000        1.0000000000
 
  2 0
 s  5 1.0
     2256.4894524000        0.0059167515
      338.4991392200        0.0411156308
       76.9063833050        0.1812996088
       21.4088621130        0.4670469627
        6.6523625585        0.4440133421
 s  1 1.0
        0.8121693602        1.0000000000
 s  1 1.0
        0.2558870496        1.0000000000
 p  3 1.0
       17.7535366450        0.0431495830
        3.8671566736        0.2292558699
        1.0487786113        0.5099918107
 p  1 1.0
        0.2765100171        1.0000000000
 d  1 1.0
        1.2000000000        1.0000000000
 
  3 0
 s  5 1.0
     2256.4894524000        0.0059167515
      338.4991392200        0.0411156308
       76.9063833050        0.1812996088
       21.4088621130        0.4670469627
        6.6523625585        0.4440133421
 s  1 1.0
        0.8121693602        1.0000000000
 s  1 1.0
        0.2558870496        1.0000000000
 p  3 1.0
       17.7535366450        0.0431495830
        3.8671566736        0.2292558699
        1.0487786113        0.5099918107
 p  1 1.0
        0.2765100171        1.0000000000
 d  1 1.0
        1.2000000000        1.0000000000
 
[5D]
[7F]
[9G]
[MO]
 Ene=  -0.19528801005482E+02
 Spin= Alpha
 Occup=    0.000000
   1     -0.000001805841
   2     -0.000000071207
   3      0.000000046139
   4     -0.000000419846
   5     -0.000000002700
   6     -0.000000003874
   7      0.000000245449
   8      0.000000006597
   9      0.000000009200
  10      0.000000000064
  11     -0.000000060616
  12     -0.000000127855
  13     -0.000000000192
  14      0.000000000488
  15      0.000000000529
  16      0.000000002368
  17     -0.000000013669
  18     -0.000000002937
  19     -0.000000001348
  20      0.000000000036
  21     -0.000000051791
  22      0.000000006143
  23     -0.000000002088
  24     -0.000000001469
  25      0.000000009566
  26      0.000000077619
  27      0.000000002259
  28      0.000000000228
  29     -0.000000000225
  30      0.000000002270
  31     -0.000000013503
  32      0.000000041283
  33      0.000000000466
  34     -0.000000001176
  35     -0.000000059275
  36     -0.000000003967
  37      0.000000004947
  38     -0.000000001710
  39     -0.000000033978
  40      0.000000177862
  41     -0.000000002068
  42     -0.000000001258
 Ene=  -0.19528801005482E+02
 Spin= Alpha
 Occup=    1.000000
   1     -0.946959569058
   2     -0.037317181633
   3      0.024209001851
   4     -0.000000000184
   5     -0.001429400476
   6     -0.002021645431
   7     -0.000000000097
   8      0.003429103961
   9      0.004852037526
  10      0.000020233715
  11      0.000000001740
  12     -0.000000000309
  13     -0.000104155717
  14      0.000292810124
  15      0.000124552859
  16      0.001226172525
  17     -0.007133413066
  18     -0.000000000037
  19     -0.000705518273
  20      0.000012702994
  21     -0.000000000065
  22      0.003201256011
  23     -0.001091398598
  24     -0.000763247601
  25      0.000000000221
  26     -0.000000000184
  27      0.001191673757
  28      0.000123593763
  29      0.000123087896
  30      0.001225490370
  31     -0.007132108157
  32      0.000000000191
  33      0.000247102332
  34     -0.000659951439
  35      0.000000000087
  36     -0.002097246652
  37      0.002653373000
  38     -0.000762888939
  39     -0.000000000048
  40     -0.000000003894
  41     -0.001003360445
  42     -0.000653586798
 Ene=  -0.19338414729714E+02
 Spin= Alpha
 Occup=    1.000000
   1     -0.000103298690
   2      0.000133996221
   3     -0.000585712809
   4      0.000000000145
   5      0.000703569035
   6     -0.000425081522
   7     -0.000000000130
   8     -0.002655294380
   9      0.001819788927
  10     -0.000140429977
  11      0.000000003851
  12      0.000000000070
  13      0.001288103276
  14      0.000345870673
  15     -0.612051233693
  16     -0.023200523051
  17      0.011670888974
  18     -0.000000000072
  19      0.001540574770
  20     -0.000316196692
  21     -0.000000000176
  22     -0.003194585576
  23      0.000530337960
  24     -0.000019599860
  25      0.000000000296
  26     -0.000000000102
  27     -0.000130114868
  28      0.000038665714
  29      0.463257931949
  30      0.017825578679
  31     -0.009476329666
  32      0.000000000064
  33      0.000705646498
  34     -0.001050070979
  35      0.000000000093
  36     -0.001494765917
  37      0.002446701112
  38      0.000068523083
  39      0.000000000050
  40     -0.000000000666
  41     -0.000053632742
  42     -0.000072441246
 Ene=  -0.19338414729714E+02
 Spin= Alpha
 Occup=    0.000000
   1     -0.000000000523
   2      0.000000000008
   3     -0.000000000087
   4     -0.000000048520
   5      0.000000001295
   6     -0.000000001051
   7      0.000000054245
   8     -0.000000005163
   9      0.000000003718
  10     -0.000000000023
  11     -0.000000011131
  12      0.000000041448
  13      0.000000002519
  14      0.000000001095
  15     -0.000001074253
  16     -0.000000040976
  17      0.000000021075
  18      0.000000055767
  19      0.000000002760
  20     -0.000000000683
  21     -0.000000033371
  22     -0.000000005961
  23      0.000000001112
  24     -0.000000000076
  25      0.000000029576
  26      0.000000162422
  27     -0.000000000218
  28      0.000000000091
  29      0.000001060950
  30      0.000000040504
  31     -0.000000020859
  32      0.000000262628
  33      0.000000001511
  34     -0.000000002386
  35     -0.000000142806
  36     -0.000000003042
  37      0.000000005182
  38      0.000000000109
  39     -0.000000088169
  40      0.000000041144
  41     -0.000000000139
  42     -0.000000000195
 Ene=  -0.19338272725394E+02
 Spin= Alpha
 Occup=    0.000000
   1      0.000000001323
   2     -0.000000001386
   3      0.000000006210
   4      0.000000029365
   5     -0.000000000420
   6     -0.000000000374
   7     -0.000000046802
   8      0.000000000399
   9      0.000000000261
  10      0.000000001519
  11      0.000000024801
  12     -0.000000192970
  13     -0.000000000433
  14      0.000000001164
  15      0.000000822197
  16      0.000000029740
  17     -0.000000012205
  18      0.000000058477
  19     -0.000000001747
  20      0.000000000030
  21     -0.000000024864
  22      0.000000002187
  23      0.000000000314
  24     -0.000000000207
  25      0.000000024512
  26      0.000000209550
  27      0.000000000280
  28     -0.000000000071
  29      0.000000778820
  30      0.000000028103
  31     -0.000000011338
  32     -0.000000359185
  33      0.000000000547
  34     -0.000000001543
  35      0.000000178940
  36     -0.000000000324
  37      0.000000001970
  38     -0.000000000210
  39      0.000000084331
  40      0.000000058108
  41     -0.000000000095
  42     -0.000000000193
 Ene=  -0.19338272725394E+02
 Spin= Alpha
 Occup=    1.000000
   1      0.000822400402
   2     -0.001038512211
   3      0.004546284284
   4      0.000000000163
   5     -0.000155850132
   6     -0.000448681895
   7     -0.000000000095
   8     -0.000215916926
   9      0.000594716530
  10      0.001089825929
  11     -0.000000002207
  12     -0.000000000014
  13     -0.000068231610
  14      0.000833713622
  15      0.491659779628
  16      0.017583163412
  17     -0.006821774398
  18      0.000000000128
  19     -0.001000076566
  20     -0.000042920984
  21      0.000000000103
  22      0.001027710120
  23      0.000329732395
  24     -0.000196682599
  25     -0.000000000144
  26      0.000000000620
  27      0.000148379676
  28     -0.000055123451
  29      0.665074125309
  30      0.024199059840
  31     -0.010232501485
  32      0.000000000033
  33      0.000538464355
  34     -0.001342693605
  35     -0.000000000090
  36     -0.000526220541
  37      0.001930624015
  38     -0.000182206253
  39     -0.000000000063
  40      0.000000000299
  41     -0.000101663831
  42     -0.000165258127
 Ene=  -0.14233683186571E+01
 Spin= Alpha
 Occup=    1.000000
   1      0.133312307569
   2     -0.275817254120
   3     -0.129591000212
   4     -0.000000000754
   5     -0.044726002357
   6     -0.062923050699
   7      0.000000003446
   8     -0.017834069354
   9     -0.025245364406
  10      0.008188341733
  11      0.000000016067
  12     -0.000000000646
  13     -0.001549730898
  14      0.004339342364
  15      0.067127758707
  16     -0.135256295319
  17     -0.042661598057
  18      0.000000000626
  19      0.071180793682
  20     -0.011113651884
  21      0.000000000902
  22      0.012031217569
  23      0.000308887837
  24      0.004350976488
  25     -0.000000000104
  26     -0.000000003058
  27     -0.008578776590
  28      0.002526487095
  29      0.067034540753
  30     -0.135060784777
  31     -0.042578135962
  32      0.000000001074
  33     -0.034013089493
  34      0.063392349292
  35     -0.000000002141
  36     -0.003738754447
  37      0.011410632240
  38      0.004349582083
  39     -0.000000000060
  40     -0.000000014937
  41      0.005075157571
  42      0.007358061528
 Ene=  -0.14233683186571E+01
 Spin= Alpha
 Occup=    0.000000
   1     -0.000000829572
   2      0.000001716338
   3      0.000000805376
   4      0.000097908291
   5      0.000000278493
   6      0.000000387337
   7     -0.000011543051
   8      0.000000111349
   9      0.000000157003
  10     -0.000000050505
  11      0.000001216594
  12      0.000001233260
  13      0.000000009639
  14     -0.000000027183
  15     -0.000000417498
  16      0.000000841239
  17      0.000000265128
  18      0.000021599150
  19     -0.000000442857
  20      0.000000066778
  21      0.000005569772
  22     -0.000000075082
  23     -0.000000001639
  24     -0.000000027144
  25     -0.000002210046
  26      0.000000222258
  27      0.000000053531
  28     -0.000000015486
  29     -0.000000417762
  30      0.000000840666
  31      0.000000268659
  32     -0.000086389691
  33      0.000000211098
  34     -0.000000391555
  35      0.000012626681
  36      0.000000023297
  37     -0.000000071349
  38     -0.000000027289
  39     -0.000000794525
  40      0.000001299423
  41     -0.000000031723
  42     -0.000000045793
 Ene=  -0.11405786487849E+01
 Spin= Alpha
 Occup=    0.000000
   1      0.000000014067
   2     -0.000000030581
   3     -0.000000024698
   4      0.000231759173
   5      0.000107437162
   6     -0.000076010500
   7      0.000002665640
   8      0.000031573164
   9     -0.000022320950
  10      0.000000001534
  11      0.000003761121
  12      0.000003714804
  13      0.000011035078
  14      0.000003906753
  15     -0.000070955918
  16      0.000145753919
  17      0.000077553620
  18      0.000028175205
  19     -0.000050873318
  20     -0.000002478682
  21      0.000016731143
  22     -0.000016438402
  23      0.000001135890
  24     -0.000002538701
  25     -0.000005148135
  26      0.000000600925
  27      0.000006268261
  28      0.000000075394
  29      0.000070976592
  30     -0.000145797034
  31     -0.000077570563
  32     -0.000105605625
  33     -0.000014633890
  34      0.000048808061
  35      0.000014967424
  36     -0.000006563901
  37      0.000015119142
  38      0.000002540608
  39      0.000000692304
  40     -0.000000903052
  41      0.000004918718
  42      0.000003889251
 Ene=  -0.11405786487849E+01
 Spin= Alpha
 Occup=    1.000000
   1      0.000034980994
   2     -0.000075524896
   3     -0.000057008051
   4     -0.000000097701
   5      0.268252858013
   6     -0.189760256502
   7      0.000000016043
   8      0.078830898773
   9     -0.055730069178
  10      0.000003611467
  11     -0.000000033341
  12     -0.000000000587
  13      0.027553041706
  14      0.009754907042
  15     -0.177166366393
  16      0.363926026467
  17      0.193640432307
  18     -0.000000015772
  19     -0.127022427106
  20     -0.006178858167
  21     -0.000000010383
  22     -0.041043548363
  23      0.002835781280
  24     -0.006338162323
  25      0.000000004259
  26     -0.000000000084
  27      0.015650637876
  28      0.000186942951
  29      0.177222565481
  30     -0.364037875223
  31     -0.193703465612
  32      0.000000054814
  33     -0.036534956239
  34      0.121853630559
  35     -0.000000008709
  36     -0.016389205896
  37      0.037750867760
  38      0.006340936006
  39     -0.000000000996
  40      0.000000003415
  41      0.012279927216
  42      0.009711445059
 Ene=  -0.78027797276707E+00
 Spin= Alpha
 Occup=    0.999997
   1     -0.181734759659
   2      0.404419167717
   3      0.330844490448
   4     -0.000000788518
   5     -0.111708004361
   6     -0.157903390761
   7     -0.000000298361
   8     -0.049581128199
   9     -0.070148268592
  10      0.007133934259
  11     -0.000000000255
  12     -0.000000031179
  13      0.002942734749
  14     -0.008315389149
  15      0.161808042690
  16     -0.335652958314
  17     -0.294984105132
  18     -0.000000275034
  19     -0.105740058083
  20     -0.045859241343
  21     -0.000000102042
  22     -0.033973263511
  23     -0.025657300599
  24     -0.003585017925
  25      0.000000027671
  26     -0.000000006963
  27      0.005069572875
  28      0.006311051000
  29      0.161849256714
  30     -0.335734887465
  31     -0.295032668397
  32     -0.000000429328
  33     -0.008039958000
  34     -0.114966526962
  35     -0.000000142845
  36     -0.012863001377
  37     -0.040589919136
  38     -0.003582816729
  39     -0.000000014047
  40      0.000000047106
  41     -0.007909965527
  42      0.001719858649
 Ene=  -0.78027797276707E+00
 Spin= Alpha
 Occup=    0.000003
   1     -0.000225528063
   2      0.000501873078
   3      0.000410564841
   4      0.000629481105
   5     -0.000138629930
   6     -0.000195983408
   7      0.000238733065
   8     -0.000061529783
   9     -0.000087062295
  10      0.000008852863
  11      0.000013289468
  12      0.000025806527
  13      0.000003652583
  14     -0.000010319643
  15      0.000200799360
  16     -0.000416536407
  17     -0.000366065826
  18      0.000223182245
  19     -0.000131220778
  20     -0.000056920809
  21      0.000086171365
  22     -0.000042159859
  23     -0.000031842325
  24     -0.000004448582
  25     -0.000022825166
  26      0.000002545186
  27      0.000006291260
  28      0.000007832768
  29      0.000200843323
  30     -0.000416625930
  31     -0.000366103234
  32      0.000346162629
  33     -0.000009985535
  34     -0.000142658026
  35      0.000113515637
  36     -0.000015964686
  37     -0.000050370539
  38     -0.000004446240
  39      0.000011659413
  40     -0.000025206592
  41     -0.000009816333
  42      0.000002134821
 Ene=  -0.63868256423368E+00
 Spin= Alpha
 Occup=    0.000582
   1     -0.000057471960
   2      0.000011955375
   3     -0.000143625029
   4      0.006540722534
   5     -0.001779062177
   6     -0.005034171993
   7      0.003772845007
   8     -0.001263546855
   9     -0.002565639614
  10      0.000118095265
  11      0.000199062136
  12      0.000281410937
  13      0.000123347657
  14     -0.000258962794
  15     -0.000506519927
  16      0.000987798953
  17      0.001588114528
  18      0.002934399446
  19      0.001145915147
  20     -0.002703744525
  21      0.001570673352
  22      0.000239037349
  23     -0.001267072159
  24      0.000052419633
  25     -0.000303739615
  26      0.000035642417
  27     -0.000029215018
  28      0.000230369368
  29     -0.001310479051
  30      0.002629615560
  31      0.003387684012
  32      0.002932437579
  33     -0.002541899390
  34      0.001455628135
  35      0.001569679483
  36     -0.001193887253
  37      0.000468539797
  38      0.000089785609
  39      0.000134941129
  40     -0.000274243648
  41     -0.000048614496
  42      0.000189647446
 Ene=  -0.63868256423367E+00
 Spin= Alpha
 Occup=    0.999418
   1      0.000000799118
   2     -0.000000170821
   3      0.000002008893
   4      0.470216827980
   5      0.000024805079
   6      0.000070030545
   7      0.271231852081
   8      0.000017613580
   9      0.000035695746
  10     -0.000001642994
  11      0.014310758254
  12      0.020230648996
  13     -0.000001715248
  14      0.000003605827
  15      0.000007069621
  16     -0.000013788281
  17     -0.000022155835
  18      0.210956106161
  19     -0.000015987900
  20      0.000037624542
  21      0.112916806329
  22     -0.000003339589
  23      0.000017636427
  24     -0.000000730704
  25     -0.021836154121
  26      0.002562365559
  27      0.000000408188
  28     -0.000003205951
  29      0.000018227155
  30     -0.000036590589
  31     -0.000047083420
  32      0.210813521139
  33      0.000035393571
  34     -0.000020215771
  35      0.112844815655
  36      0.000016618752
  37     -0.000006511935
  38     -0.000001249176
  39      0.009700929571
  40     -0.019715277955
  41      0.000000678171
  42     -0.000002639946
 Ene=  -0.62220699281270E+00
 Spin= Alpha
 Occup=    0.000402
   1     -0.000053160195
   2      0.000090449001
   3      0.000037901579
   4      0.008345715198
   5     -0.000753952040
   6     -0.001077321502
   7      0.005143454766
   8     -0.000448261676
   9     -0.000636880377
  10      0.000032310666
  11      0.000247573829
  12      0.000387155560
  13      0.000024985783
  14     -0.000070020412
  15     -0.000200535725
  16      0.000395350647
  17      0.000588691175
  18      0.003598576599
  19      0.000453804452
  20     -0.000582977724
  21      0.002054160446
  22      0.000140351447
  23     -0.000299290885
  24      0.000018677668
  25     -0.000392145869
  26      0.000046701606
  27     -0.000014962621
  28      0.000053716845
  29     -0.000203329061
  30      0.000401060593
  31      0.000594841814
  32      0.004338738049
  33     -0.000704368650
  34      0.000233955299
  35      0.002305202939
  36     -0.000330074692
  37      0.000033827314
  38      0.000018806909
  39      0.000186387183
  40     -0.000376578052
  41     -0.000022040715
  42      0.000051182790
 Ene=  -0.62220699281270E+00
 Spin= Alpha
 Occup=    0.999598
   1      0.010760493678
   2     -0.018309405665
   3     -0.007672394776
   4      0.000041219192
   5      0.152563435762
   6      0.218053973326
   7      0.000025408572
   8      0.090708647906
   9      0.128906209272
  10     -0.006539381424
  11      0.000001232614
  12      0.000001910229
  13     -0.005058026434
  14      0.014170552894
  15      0.040574587054
  16     -0.079990994755
  17     -0.119115791981
  18      0.000017780251
  19     -0.091816735572
  20      0.117989582578
  21      0.000010150830
  22     -0.028393680825
  23      0.060572908514
  24     -0.003779265316
  25     -0.000001938469
  26      0.000000229162
  27      0.003026747005
  28     -0.010871851189
  29      0.041158273861
  30     -0.081182431812
  31     -0.120411735470
  32      0.000021397211
  33      0.142559354429
  34     -0.047376598140
  35      0.000011375016
  36      0.066804162897
  37     -0.006856343167
  38     -0.003807125949
  39      0.000000918644
  40     -0.000001861058
  41      0.004459490755
  42     -0.010359271456
 Ene=  -0.60877335510172E+00
 Spin= Alpha
 Occup=    0.000020
   1      0.000000164532
   2     -0.000000447715
   3      0.000000094060
   4     -0.000661690483
   5     -0.000416215628
   6      0.000294595805
   7     -0.000560113280
   8     -0.000205033538
   9      0.000146375952
  10     -0.000000028759
  11     -0.000008950122
  12     -0.000059462777
  13     -0.000018841180
  14     -0.000006411532
  15     -0.000153897740
  16      0.000310689246
  17      0.000388842299
  18     -0.000244631878
  19      0.000412539209
  20      0.000066245560
  21     -0.000140804147
  22      0.000179230471
  23      0.000029380239
  24      0.000014168394
  25      0.000031150291
  26     -0.000004578875
  27     -0.000021045465
  28     -0.000005651159
  29      0.000154227505
  30     -0.000311396023
  31     -0.000390024870
  32     -0.001179639337
  33      0.000082424878
  34     -0.000409388232
  35     -0.000471441057
  36      0.000034868430
  37     -0.000177824119
  38     -0.000014223963
  39     -0.000027536290
  40      0.000057294621
  41     -0.000019737399
  42     -0.000009081095
 Ene=  -0.60877335510172E+00
 Spin= Alpha
 Occup=    0.999980
   1     -0.000061101478
   2      0.000162876448
   3     -0.000027782624
   4     -0.000001833443
   5      0.143156664801
   6     -0.101408561322
   7     -0.000001590001
   8      0.070516783012
   9     -0.050395719231
  10      0.000011865458
  11     -0.000000013450
  12     -0.000000170441
  13      0.006483518789
  14      0.002202117881
  15      0.052938190197
  16     -0.106872402304
  17     -0.133750090550
  18     -0.000000670016
  19     -0.141909032593
  20     -0.022822653514
  21     -0.000000385430
  22     -0.061656725509
  23     -0.010124195084
  24     -0.004873680088
  25      0.000000084972
  26     -0.000000011616
  27      0.007240043391
  28      0.001947243839
  29     -0.053068766131
  30      0.107147944311
  31      0.134215078749
  32     -0.000003396602
  33     -0.028397920835
  34      0.140860936150
  35     -0.000001350522
  36     -0.012015241004
  37      0.061181166038
  38      0.004894645556
  39     -0.000000078421
  40      0.000000159923
  41      0.006789315857
  42      0.003127048738
 Ene=  -0.37710012512671E+00
 Spin= Alpha
 Occup=    0.999376
   1      0.000000020924
   2     -0.000000052272
   3     -0.000000040701
   4      0.000074786342
   5      0.000009736480
   6     -0.000007566452
   7      0.000072246329
   8     -0.000004858955
   9      0.000002976265
  10      0.000000016256
  11     -0.031741918462
  12      0.022434950118
  13      0.000005110258
  14      0.000001818004
  15     -0.000000024671
  16      0.000001721632
  17      0.000000907149
  18     -0.476830575901
  19     -0.000014271029
  20      0.000089456765
  21     -0.342751653893
  22     -0.000012598257
  23      0.000058666801
  24     -0.000000525684
  25      0.019749419667
  26     -0.001067959353
  27      0.000000719779
  28     -0.000002986624
  29     -0.000000079312
  30     -0.000001508396
  31     -0.000000484253
  32      0.476918789173
  33     -0.000088549189
  34     -0.000016168740
  35      0.342812916495
  36     -0.000059285773
  37     -0.000007449539
  38      0.000000536789
  39      0.007602152902
  40     -0.018263664180
  41     -0.000001312920
  42      0.000002797156
 Ene=  -0.37710012512670E+00
 Spin= Alpha
 Occup=    0.000624
   1     -0.000003447939
   2      0.000008771993
   3      0.000008091130
   4      0.000000558931
   5     -0.001289288588
   6      0.000997267584
   7      0.000000541876
   8      0.000642137046
   9     -0.000393064836
  10     -0.000002228317
  11     -0.000239847250
  12      0.000169520536
  13     -0.000676348601
  14     -0.000240077423
  15      0.000003748129
  16     -0.000226723927
  17     -0.000125870849
  18     -0.003603016164
  19      0.001888924804
  20     -0.011827525472
  21     -0.002589891313
  22      0.001668449737
  23     -0.007756525129
  24      0.000069522746
  25      0.000149231060
  26     -0.000008070061
  27     -0.000095463210
  28      0.000395064539
  29      0.000010390548
  30      0.000199990851
  31      0.000062702472
  32      0.003603648688
  33      0.011720229182
  34      0.002142277157
  35      0.002590329226
  36      0.007847418791
  37      0.000987378465
  38     -0.000071082837
  39      0.000057441306
  40     -0.000138003482
  41      0.000173855952
  42     -0.000370129034
 Ene=  -0.36237670165054E+00
 Spin= Alpha
 Occup=    0.999437
   1      0.000047915129
   2     -0.000097094653
   3     -0.000165150328
   4      0.000000170795
   5     -0.033281657898
   6      0.023802413208
   7      0.000000124107
   8      0.041142345693
   9     -0.028881367369
  10     -0.000011591823
  11      0.000000171409
  12     -0.000000117139
  13     -0.027836222739
  14     -0.009879341149
  15      0.005200301266
  16     -0.020521495212
  17     -0.021767417088
  18      0.000002331506
  19      0.078807645525
  20     -0.490539324161
  21      0.000001814511
  22      0.064940997722
  23     -0.338020689872
  24      0.002419494614
  25     -0.000000107080
  26      0.000000004890
  27     -0.003374295905
  28      0.017064999698
  29     -0.005207791676
  30      0.020557670557
  31      0.021716944778
  32     -0.000002595111
  33      0.488445656548
  34      0.089003634218
  35     -0.000001903171
  36      0.340091606011
  37      0.051330750406
  38     -0.002426196747
  39     -0.000000038777
  40      0.000000090291
  41      0.008101830487
  42     -0.015388289222
 Ene=  -0.36237670165053E+00
 Spin= Alpha
 Occup=    0.000563
   1      0.000000012709
   2     -0.000000025659
   3     -0.000000046400
   4     -0.000646776923
   5     -0.000009290436
   6      0.000006637367
   7     -0.000403134496
   8      0.000011481642
   9     -0.000008062288
  10     -0.000000002687
  11     -0.000616438313
  12      0.000424684622
  13     -0.000007768359
  14     -0.000002755925
  15      0.000001451387
  16     -0.000005727129
  17     -0.000006075399
  18     -0.008508746139
  19      0.000021997237
  20     -0.000136890842
  21     -0.006605095097
  22      0.000018126049
  23     -0.000094324119
  24      0.000000674696
  25      0.000389118156
  26     -0.000020188129
  27     -0.000000942081
  28      0.000004761037
  29     -0.000001450818
  30      0.000005728602
  31      0.000006065268
  32      0.009399673754
  33      0.000136319012
  34      0.000024838416
  35      0.006893749558
  36      0.000094916348
  37      0.000014324484
  38     -0.000000676755
  39      0.000140102281
  40     -0.000339996676
  41      0.000002261331
  42     -0.000004294698
 Ene=  -0.34703409819415E+00
 Spin= Alpha
 Occup=    0.999987
   1     -0.008532528254
   2      0.016224273593
   3      0.035330654004
   4      0.000000758685
   5     -0.026538001846
   6     -0.034503041662
   7      0.000000360438
   8     -0.014829635824
   9     -0.021707537507
  10      0.002026454376
  11      0.000000021991
  12     -0.000000019984
  13     -0.002127573329
  14      0.003733594491
  15      0.001571719221
  16     -0.006382344177
  17      0.003060506492
  18     -0.000000232531
  19      0.032520770724
  20      0.044045804207
  21      0.000000037829
  22      0.020541198395
  23      0.034327128855
  24      0.000526510820
  25     -0.000000020699
  26      0.000000001290
  27     -0.001504031642
  28     -0.000614132177
  29      0.001620793166
  30     -0.006042748202
  31      0.002874622891
  32     -0.000001037379
  33      0.053322071998
  34      0.048965868397
  35     -0.000000593379
  36      0.042127527372
  37      0.032521852227
  38      0.000359247702
  39     -0.000000007683
  40      0.000000016820
  41      0.001851421216
  42     -0.000295508223
 Ene=  -0.34703409819415E+00
 Spin= Alpha
 Occup=    0.000013
   1      0.000005126412
   2     -0.000009746575
   3     -0.000021229526
   4      0.001297123286
   5      0.000015946651
   6      0.000020744740
   7      0.000641935878
   8      0.000008909950
   9      0.000013048051
  10     -0.000001217465
  11      0.000034723757
  12     -0.000029560491
  13      0.000001278606
  14     -0.000002244282
  15     -0.000000945192
  16      0.000003836992
  17     -0.000001837239
  18     -0.000550360326
  19     -0.000019543487
  20     -0.000026482957
  21     -0.000057447057
  22     -0.000012346831
  23     -0.000020640894
  24     -0.000000316716
  25     -0.000032518941
  26     -0.000000456012
  27      0.000000904487
  28      0.000000370632
  29     -0.000000971808
  30      0.000003626512
  31     -0.000001733131
  32     -0.001674085007
  33     -0.000032054716
  34     -0.000029424961
  35     -0.000943408422
  36     -0.000025325006
  37     -0.000019543341
  38     -0.000000217028
  39     -0.000008638511
  40      0.000013225108
  41     -0.000001113537
  42      0.000000177909
 Ene=  -0.17087332809835E+00
 Spin= Alpha
 Occup=    0.000000
   1      0.000018760398
   2     -0.000038361217
   3     -0.000093510225
   4     -0.458847555613
   5      0.000023913141
   6      0.000069277624
   7     -0.351354516537
   8      0.000021639479
   9      0.000108657267
  10     -0.000006597310
  11      0.002622558939
  12      0.003709413739
  13     -0.000006854601
  14     -0.000012717244
  15     -0.000007958393
  16      0.000023740984
  17      0.000008710658
  18      0.390542239212
  19     -0.000030433497
  20     -0.000147781891
  21      0.330536372920
  22     -0.000001537062
  23     -0.000198175619
  24      0.000001143314
  25      0.003330986833
  26      0.001395630576
  27     -0.000000488837
  28      0.000004327407
  29     -0.000002838513
  30      0.000016004252
  31     -0.000043551966
  32      0.390506387622
  33      0.000026368634
  34     -0.000100186090
  35      0.330493612592
  36      0.000021087274
  37     -0.000127894880
  38     -0.000004084636
  39      0.000203054384
  40      0.003604645410
  41     -0.000005284104
  42     -0.000006082392
 Ene=  -0.17087332809834E+00
 Spin= Alpha
 Occup=    0.000000
   1      0.000122790296
   2     -0.000251092070
   3     -0.000612023808
   4      0.070059481228
   5      0.000156441353
   6      0.000453643412