[Molden Format]
[Title]
generated by TRESC, real part2 of MOs of job O3
 
[Atoms] AU
 O   1   8   -4.5402454961    7.2177128343   -2.7178598716
 O   2   8   -2.2158043353    7.0339313734   -2.7178598716
 O   3   8   -5.4895719187    9.3477159757   -2.7178598716
[GTO]
  1 0
 s  5 1.0
     2256.4894524000        0.0059167515
      338.4991392200        0.0411156308
       76.9063833050        0.1812996088
       21.4088621130        0.4670469627
        6.6523625585        0.4440133421
 s  1 1.0
        0.8121693602        1.0000000000
 s  1 1.0
        0.2558870496        1.0000000000
 p  3 1.0
       17.7535366450        0.0431495830
        3.8671566736        0.2292558699
        1.0487786113        0.5099918107
 p  1 1.0
        0.2765100171        1.0000000000
 d  1 1.0
        1.2000000000        1.0000000000
 
  2 0
 s  5 1.0
     2256.4894524000        0.0059167515
      338.4991392200        0.0411156308
       76.9063833050        0.1812996088
       21.4088621130        0.4670469627
        6.6523625585        0.4440133421
 s  1 1.0
        0.8121693602        1.0000000000
 s  1 1.0
        0.2558870496        1.0000000000
 p  3 1.0
       17.7535366450        0.0431495830
        3.8671566736        0.2292558699
        1.0487786113        0.5099918107
 p  1 1.0
        0.2765100171        1.0000000000
 d  1 1.0
        1.2000000000        1.0000000000
 
  3 0
 s  5 1.0
     2256.4894524000        0.0059167515
      338.4991392200        0.0411156308
       76.9063833050        0.1812996088
       21.4088621130        0.4670469627
        6.6523625585        0.4440133421
 s  1 1.0
        0.8121693602        1.0000000000
 s  1 1.0
        0.2558870496        1.0000000000
 p  3 1.0
       17.7535366450        0.0431495830
        3.8671566736        0.2292558699
        1.0487786113        0.5099918107
 p  1 1.0
        0.2765100171        1.0000000000
 d  1 1.0
        1.2000000000        1.0000000000
 
[5D]
[7F]
[9G]
[MO]
 Ene=   0.94631961392582E+00
 Spin= Alpha
 Occup=    0.000000
   1      0.000001543109
   2     -0.000011275751
   3      0.000051585099
   4      0.000019178936
   5     -0.000025667547
   6      0.000007928005
   7     -0.000055940790
   8      0.000046566249
   9      0.000006352518
  10     -0.000000660027
  11      0.002357722224
  12     -0.001654628164
  13     -0.000007874057
  14     -0.000003794766
  15     -0.000000161690
  16     -0.000003452115
  17     -0.000025931792
  18      0.249964780634
  19      0.000024796643
  20      0.000035244902
  21     -0.298652090147
  22     -0.000021454624
  23     -0.000035092052
  24      0.000002882615
  25     -0.007151307107
  26      0.004687836116
  27     -0.000004418818
  28      0.000001670918
  29      0.000004069636
  30     -0.000013866073
  31     -0.000000816434
  32     -0.250057221963
  33      0.000006878866
  34     -0.000045210887
  35      0.298785354216
  36     -0.000026640005
  37      0.000064172929
  38     -0.000001215010
  39     -0.006802881117
  40      0.005181219406
  41     -0.000001884340
  42     -0.000003245687
 Ene=   0.94631961392583E+00
 Spin= Alpha
 Occup=    0.000000
   1     -0.000271339510
   2      0.001985427605
   3     -0.009026823259
   4      0.000000057505
   5      0.004481547496
   6     -0.001372642810
   7     -0.000000158741
   8     -0.008141598866
   9     -0.001139510267
  10      0.000112568478
  11      0.000013560051
  12     -0.000009519566
  13      0.001374078571
  14      0.000660238459
  15      0.000027970899
  16      0.000604456463
  17      0.004534673398
  18      0.001437988220
  19     -0.004336490643
  20     -0.006159662157
  21     -0.001718113204
  22      0.003750378347
  23      0.006142519321
  24     -0.000504071221
  25     -0.000041140675
  26      0.000026964218
  27      0.000771924852
  28     -0.000290960304
  29     -0.000711362351
  30      0.002427561024
  31      0.000149991475
  32     -0.001438315223
  33     -0.001213528223
  34      0.007872046300
  35      0.001718557316
  36      0.004671861679
  37     -0.011179913404
  38      0.000210368652
  39     -0.000039133502
  40      0.000029804296
  41      0.000326732657
  42      0.000565708059
 Ene=   0.98523703999551E+00
 Spin= Alpha
 Occup=    0.000000
   1     -0.000017569736
   2      0.000305489371
   3      0.000289517021
   4     -0.038023255054
   5      0.000530591534
   6      0.000580480802
   7      0.075720428210
   8     -0.001315277611
   9     -0.000850509507
  10     -0.000154537664
  11     -0.001066266533
  12     -0.001521704725
  13      0.000025457612
  14     -0.000076958251
  15     -0.000082884346
  16      0.000531297087
  17     -0.000026785593
  18      0.027929624021
  19     -0.000426185092
  20     -0.000165930198
  21     -0.052027586983
  22      0.000468375713
  23      0.000475609911
  24     -0.000068597011
  25     -0.001432931748
  26     -0.000734068369
  27      0.000082720586
  28      0.000014528197
  29     -0.000058342983
  30      0.000434979534
  31     -0.000559615325
  32      0.027660842243
  33     -0.000325844143
  34     -0.000737872145
  35     -0.051706249688
  36      0.000707565276
  37      0.001344370205
  38     -0.000057161544
  39     -0.000212411977
  40     -0.001587694535
  41     -0.000092938777
  42     -0.000007914275
 Ene=   0.98523703999551E+00
 Spin= Alpha
 Occup=    0.000000
   1     -0.000229615419
   2      0.003992786000
   3      0.003783943787
   4      0.002908011656
   5      0.006935428154
   6      0.007587658948
   7     -0.005791112584
   8     -0.017190766734
   9     -0.011118114746
  10     -0.002019888951
  11      0.000081540906
  12      0.000116378333
  13      0.000332811867
  14     -0.001005837675
  15     -0.001083374138
  16      0.006944611000
  17     -0.000350946790
  18     -0.002136049130
  19     -0.005570801907
  20     -0.002169680466
  21      0.003979061630
  22      0.006122870781
  23      0.006217869501
  24     -0.000896626861
  25      0.000109594294
  26      0.000056145624
  27      0.001081262362
  28      0.000189933208
  29     -0.000762675568
  30      0.005685867699
  31     -0.007313827442
  32     -0.002115610545
  33     -0.004258454771
  34     -0.009643444922
  35      0.003954616013
  36      0.009247881095
  37      0.017569963167
  38     -0.000747148189
  39      0.000016241055
  40      0.000121432950
  41     -0.001214714602
  42     -0.000103472972
 Ene=   0.10001731803620E+01
 Spin= Alpha
 Occup=    0.000000
   1     -0.000039882101
   2      0.000781402613
   3      0.000636015857
   4      0.010764248162
   5      0.001277718003
   6      0.001681573764
   7     -0.021173572067
   8     -0.002527202915
   9     -0.003022554070
  10     -0.000409910402
  11      0.000272783088
  12      0.000445024111
  13      0.000079187267
  14     -0.000200148420
  15     -0.000180392651
  16      0.001240142487
  17     -0.000522597303
  18     -0.009167937283
  19     -0.001314400040
  20     -0.000948512338
  21      0.015970886939
  22      0.001807268567
  23      0.002023568559
  24     -0.000176205022
  25      0.000439978739
  26      0.000182292300
  27      0.000220603417
  28      0.000076221360
  29     -0.000173621780
  30      0.001209157161
  31     -0.000814926511
  32     -0.006727913392
  33     -0.000595791378
  34     -0.001620546182
  35      0.013145577454
  36      0.001512208945
  37      0.002659012195
  38     -0.000166420606
  39      0.000097331733
  40      0.000422254778
  41     -0.000224985314
  42     -0.000054947771
 Ene=   0.10001731803620E+01
 Spin= Alpha
 Occup=    0.000000
   1      0.001547526798
   2     -0.030318403820
   3     -0.024673539964
   4      0.000277523341
   5     -0.049573119671
   6     -0.065243141763
   7     -0.000545894415
   8      0.098051597025
   9      0.117272575735
  10      0.015903962551
  11      0.000007043564
  12      0.000011473737
  13     -0.003072281507
  14      0.007765534604
  15      0.006998908381
  16     -0.048115206938
  17      0.020274816777
  18     -0.000236338645
  19      0.050996793728
  20      0.036801583189
  21      0.000411725941
  22     -0.070118719318
  23     -0.078512819124
  24      0.006836478692
  25      0.000011338353
  26      0.000004697319
  27     -0.008559048651
  28     -0.002957406938
  29      0.006736428592
  30     -0.046914413327
  31      0.031617287937
  32     -0.000173442674
  33      0.023116412080
  34      0.062874872478
  35      0.000338906643
  36     -0.058672293601
  37     -0.103165155535
  38      0.006457011065
  39      0.000002510748
  40      0.000010879278
  41      0.008729172215
  42      0.002132001060
 Ene=   0.10742766457603E+01
 Spin= Alpha
 Occup=    0.000000
   1      0.000001724917
   2     -0.000005656214
   3      0.000072099840
   4      0.002558685354
   5     -0.015046865430
   6      0.010668730764
   7     -0.004572854185
   8      0.058541241494
   9     -0.041410703701
  10     -0.000006705513
  11      0.000089339944
  12      0.000090700845
  13     -0.002633173441
  14     -0.000937190658
  15     -0.000494940724
  16      0.002749208031
  17     -0.038659320051
  18     -0.000740631112
  19      0.002117604563
  20     -0.014452353754
  21      0.001946978191
  22      0.017811538892
  23      0.027456229992
  24      0.001289537435
  25      0.000044131708
  26      0.000074486820
  27     -0.001756533823
  28      0.002671548614
  29      0.000490566591
  30     -0.002715709127
  31      0.038589212789
  32     -0.002646823724
  33      0.014329434460
  34      0.002779008583
  35      0.004044840743
  36     -0.019926000942
  37     -0.025856846162
  38     -0.001293472799
  39     -0.000006046525
  40      0.000114030888
  41      0.000310356661
  42     -0.003183264500
 Ene=   0.10742766457603E+01
 Spin= Alpha
 Occup=    0.000000
   1      0.000050533246
   2     -0.000165439734
   3      0.002114366749
   4     -0.000087146691
   5     -0.441592206271
   6      0.313102865379
   7      0.000155750214
   8      1.718056162764
   9     -1.215311947096
  10     -0.000196744518
  11     -0.000003040760
  12     -0.000003089243
  13     -0.077277628586
  14     -0.027504392362
  15     -0.014525453283
  16      0.080683440062
  17     -1.134565711765
  18      0.000025205116
  19      0.062146620211
  20     -0.424143797393
  21     -0.000066288239
  22      0.522729782192
  23      0.805778261315
  24      0.037845038360
  25     -0.000001505229
  26     -0.000002542739
  27     -0.051550300014
  28      0.078403963973
  29      0.014397163909
  30     -0.079700967646
  31      1.132509540851
  32      0.000090229915
  33      0.420537260658
  34      0.081558423269
  35     -0.000137849664
  36     -0.584783497322
  37     -0.758842861985
  38     -0.037960475110
  39      0.000000208327
  40     -0.000003893290
  41      0.009108312859
  42     -0.093421604765
 Ene=   0.11998242515548E+01
 Spin= Alpha
 Occup=    0.000000
   1     -0.070109543661
   2      0.537641421180
   3     -1.699483248408
   4     -0.000003286013
   5      0.044795255655
   6      0.065390595563
   7      0.000002826914
   8     -0.324161302242
   9     -0.482383107219
  10     -0.021110121517
  11      0.000000158962
  12     -0.000000363423
  13      0.001134426376
  14     -0.001361904072
  15      0.028065146373
  16     -0.208152216912
  17      0.825507010727
  18     -0.000000773359
  19      0.013156355345
  20      0.053765895466
  21     -0.000000332980
  22     -0.444445912806
  23      0.055508290712
  24     -0.022264037621
  25      0.000000087388
  26      0.000000105969
  27      0.011628061634
  28      0.006668735644
  29      0.030011563487
  30     -0.221353337162
  31      0.857554545361
  32     -0.000004002463
  33      0.042813717848
  34      0.031760018855
  35      0.000003194803
  36      0.209900715279
  37     -0.416437658908
  38     -0.021606461157
  39     -0.000000092760
  40      0.000000379512
  41     -0.013325366585
  42     -0.001792748722
 Ene=   0.11998242515548E+01
 Spin= Alpha
 Occup=    0.000000
   1      0.000927692341
   2     -0.007114092240
   3      0.022487624133
   4     -0.000246907984
   5     -0.000592740437
   6     -0.000865228353
   7      0.000210483158
   8      0.004289492927
   9      0.006382763816
  10      0.000279326278
  11      0.000011786687
  12     -0.000026887684
  13     -0.000014999115
  14      0.000018025841
  15     -0.000371376536
  16      0.002754396313
  17     -0.010923416476
  18     -0.000058553459
  19     -0.000174106915
  20     -0.000711403733
  21     -0.000024045741
  22      0.005881081549
  23     -0.000734520373
  24      0.000294591271
  25      0.000006904288
  26      0.000008132417
  27     -0.000153860580
  28     -0.000088245356
  29     -0.000397098495
  30      0.002928849564
  31     -0.011346922889
  32     -0.000304280448
  33     -0.000566550841
  34     -0.000420233513
  35      0.000244016224
  36     -0.002777321766
  37      0.005510180180
  38      0.000285903532
  39     -0.000006964553
  40      0.000026884652
  41      0.000176319382
  42      0.000023723924
 Ene=   0.12225184161394E+01
 Spin= Alpha
 Occup=    0.000000
   1      0.000672604256
   2     -0.005202925907
   3      0.016739260242
   4      0.000002205071
   5      0.169869813671
   6     -0.121310261519
   7     -0.000000509720
   8     -1.525612773498
   9      1.085315491382
  10      0.000163257131
  11      0.000000197832
  12      0.000000223880
  13     -0.079202027338
  14     -0.028149761229
  15      0.118006598085
  16     -0.806980205838
  17      2.075471199274
  18      0.000003412433
  19      0.197398280498
  20     -0.174263412302
  21     -0.000003018190
  22     -1.217129977750
  23      0.190214124774
  24      0.038156896237
  25     -0.000000200224
  26     -0.000000033368
  27     -0.002960424112
  28      0.018068511116
  29     -0.118567041457
  30      0.811235310123
  31     -2.092016722246
  32      0.000004223663
  33      0.228812149328
  34     -0.129453842835
  35     -0.000003816700
  36     -0.589301906968
  37      1.092832678695
  38     -0.037728024680
  39      0.000000040928
  40     -0.000000280121
  41      0.009263925656
  42     -0.015834564492
 Ene=   0.12225184161394E+01
 Spin= Alpha
 Occup=    0.000000
   1      0.000004743341
   2     -0.000036691282
   3      0.000118056352
   4     -0.000314931345
   5      0.001192173935
   6     -0.000851403128
   7      0.000075596469
   8     -0.010707144650
   9      0.007617257946
  10      0.000001150814
  11     -0.000017625451
  12     -0.000032072322
  13     -0.000555870591
  14     -0.000197566764
  15      0.000828203093
  16     -0.005663606527
  17      0.014566096794
  18     -0.000483688345
  19      0.001385400301
  20     -0.001223064616
  21      0.000423214683
  22     -0.008542085506
  23      0.001334985470
  24      0.000267807841
  25      0.000025051261
  26      0.000004887797
  27     -0.000020784833
  28      0.000126812057
  29     -0.000832157237
  30      0.005693624821
  31     -0.014682797999
  32     -0.000601347396
  33      0.001605877965
  34     -0.000908563324
  35      0.000544003291
  36     -0.004136011969
  37      0.007670020915
  38     -0.000264783177
  39     -0.000005186464
  40      0.000040411868
  41      0.000065018465
  42     -0.000111135827
 Ene=   0.19557654138637E+01
 Spin= Alpha
 Occup=    0.000000
   1      0.000002338880
   2     -0.000071995691
   3      0.000290613506
   4      0.000020658698
   5      0.000007344024
   6      0.000010211437
   7     -0.000005116097
   8      0.000183532290
   9      0.000020558531
  10     -0.000006745260
  11     -0.179448774179
  12      0.126815952575
  13      0.000062369518
  14     -0.000076413614
  15      0.000004248793
  16      0.000013073648
  17     -0.000238825570
  18      0.018246083835
  19      0.000088034621
  20      0.000000093132
  21      0.025983682684
  22      0.000099644181
  23     -0.000005737796
  24      0.000081907246
  25      0.145125532385
  26      0.008903819113
  27     -0.000001339020
  28      0.000013918843
  29      0.000002788583
  30     -0.000006088434
  31     -0.000036317504
  32     -0.018218460772
  33     -0.000043994870
  34      0.000012087479
  35     -0.025997215354
  36      0.000001194846
  37      0.000013120009
  38      0.000018025600
  39      0.040039008151
  40     -0.139747509635
  41     -0.000062286239
  42      0.000066832709
 Ene=   0.19557654138637E+01
 Spin= Alpha
 Occup=    0.000000
   1      0.000000896579
   2     -0.000027286457
   3      0.000110054230
   4     -0.000054706265
   5      0.000002753566
   6      0.000003862348
   7      0.000013555972
   8      0.000069513727
   9      0.000007735585
  10     -0.000002550893
  11      0.474978530268
  12     -0.335665964549
  13      0.000023598226
  14     -0.000028874042
  15      0.000001563773
  16      0.000005164298
  17     -0.000090622686
  18     -0.048295099840
  19      0.000033264815
  20      0.000000028635
  21     -0.068775577104
  22      0.000037799004
  23     -0.000002173515
  24      0.000030939539
  25     -0.384129169667
  26     -0.023567300181
  27     -0.000000486928
  28      0.000005251643
  29      0.000001061469
  30     -0.000002347326
  31     -0.000013658247
  32      0.048221981582
  33     -0.000016631135
  34      0.000004559028
  35      0.068811385903
  36      0.000000463759
  37      0.000004938874
  38      0.000006831065
  39     -0.105978240032
  40      0.369894181179
  41     -0.000023541494
  42      0.000025269682
 Ene=   0.20459742884939E+01
 Spin= Alpha
 Occup=    0.000000
   1     -0.000000226811
   2      0.000001925947
   3     -0.000004503437
   4     -0.000039270229
   5     -0.000000266784
   6     -0.000000265301
   7     -0.000040385864
   8     -0.000001244925
   9     -0.000001779939
  10     -0.000002659493
  11      0.000403958786
  12      0.000389020812
  13     -0.000001869717
  14      0.000005139071
  15     -0.000000144134
  16      0.000000462082
  17      0.000001655364
  18      0.000030706636
  19     -0.000000858915
  20     -0.000000221213
  21     -0.000081855159
  22     -0.000000659140
  23     -0.000000227910
  24     -0.000000766670
  25     -0.000311487863
  26      0.000062452812
  27     -0.000001147251
  28     -0.000003372578
  29     -0.000000134656
  30      0.000000431173
  31      0.000001669283
  32     -0.000021444705
  33     -0.000000062618
  34     -0.000000842004
  35      0.000001308538
  36      0.000000096486
  37     -0.000000692134
  38     -0.000000824513
  39      0.000258725154
  40     -0.000115252239
  41      0.000003050962
  42     -0.000001761906
 Ene=   0.20459742884939E+01
 Spin= Alpha
 Occup=    0.000000
   1     -0.000303295112
   2      0.002573885497
   3     -0.006008489772
   4      0.000000035727
   5     -0.000359058795
   6     -0.000352808691
   7      0.000000038185
   8     -0.001661237832
   9     -0.002376211909
  10     -0.003556203707
  11     -0.000000353072
  12     -0.000000317748
  13     -0.002499789089
  14      0.006874263297
  15     -0.000192012554
  16      0.000614442520
  17      0.002212943868
  18     -0.000000018000
  19     -0.001149177497
  20     -0.000298314398
  21      0.000000063942
  22     -0.000879818048
  23     -0.000303135673
  24     -0.001024320693
  25      0.000000272609
  26     -0.000000055497
  27     -0.001532598565
  28     -0.004513598261
  29     -0.000180883068
  30      0.000583011811
  31      0.002218542477
  32      0.000000018552
  33     -0.000084868624
  34     -0.001127867931
  35     -0.000000006141
  36      0.000124457361
  37     -0.000917971876
  38     -0.001096948203
  39     -0.000000215228
  40      0.000000104882
  41      0.004074719577
  42     -0.002349392318
 Ene=   0.21350901620541E+01
 Spin= Alpha
 Occup=    0.000000
   1      0.000004250252
   2     -0.000037577829
   3      0.000091756330
   4     -0.045926623224
   5      0.000014192375
   6      0.000001073981
   7     -0.031251971185
   8      0.000017565290
   9      0.000038642325
  10      0.000028242181
  11      0.250433100022
  12      0.354497972262
  13      0.000033359747
  14     -0.000075065949
  15      0.000002906689
  16     -0.000007013698
  17     -0.000035036712
  18     -0.022630833541
  19      0.000022479205
  20      0.000005621364
  21     -0.012029764014
  22      0.000013170330
  23     -0.000004062416
  24      0.000024226501
  25     -0.204786920201
  26      0.129729624520
  27      0.000025534005
  28      0.000059039662
  29      0.000002409999
  30     -0.000008768803
  31     -0.000034231706
  32     -0.022615320384
  33      0.000002491450
  34      0.000013654350
  35     -0.012067435260
  36     -0.000003674090
  37      0.000014579977
  38     -0.000004400167
  39      0.190512391365
  40     -0.149996037039
  41     -0.000038061014
  42      0.000029066680
 Ene=   0.21350901620541E+01
 Spin= Alpha
 Occup=    0.000000
   1     -0.000023447401
   2      0.000207189397
   3     -0.000505771284
   4     -0.008332250835
   5     -0.000078294106
   6     -0.000005919084
   7     -0.005669908464
   8     -0.000096405087
   9     -0.000213171160
  10     -0.000155906759
  11      0.045434927209
  12      0.064314957956
  13     -0.000183624612
  14      0.000413693418
  15     -0.000016090775
  16      0.000039034413
  17      0.000192471019
  18     -0.004105815004
  19     -0.000123672660
  20     -0.000030917048
  21     -0.002182497884
  22     -0.000072495975
  23      0.000022340029
  24     -0.000133694713
  25     -0.037153538402
  26      0.023536270347
  27     -0.000140580295
  28     -0.000325431595
  29     -0.000013252287
  30      0.000048139454
  31      0.000189113035
  32     -0.004102993700
  33     -0.000013693371
  34     -0.000075206076
  35     -0.002189341556
  36      0.000020291122
  37     -0.000080583993
  38      0.000024213951
  39      0.034563792056
  40     -0.027213111861
  41      0.000209690994
  42     -0.000160153298
 Ene=   0.25037888856818E+01
 Spin= Alpha
 Occup=    0.000000
   1      0.000898783558
   2     -0.006407769409
   3      0.013681890677
   4      0.000000009433
   5      0.150683238076
   6     -0.108779125705
   7      0.000000004274
   8     -0.515212250860
   9      0.372338559789
  10     -0.004236783002
  11     -0.000000001932
  12      0.000000007956
  13     -0.289289825227
  14     -0.104787335282
  15     -0.025388393905
  16      0.108332301150
  17      0.255205480065
  18     -0.000000004130
  19     -0.127830158527
  20      0.048918547536
  21     -0.000000002200
  22     -0.094984206214
  23     -0.099436333440
  24     -0.192328387108
  25      0.000000018387
  26      0.000000014170
  27     -0.232901595574
  28      0.274216940583
  29      0.025861066181
  30     -0.109634363517
  31     -0.265784011458
  32     -0.000000008977
  33     -0.089527698322
  34      0.107396990285
  35      0.000000001262
  36      0.057873324443
  37      0.126109783948
  38      0.180158448521
  39      0.000000143222
  40      0.000000088838
  41     -0.008722853291
  42     -0.357161368915
 Ene=   0.25037888856818E+01
 Spin= Alpha
 Occup=    0.000000
   1     -0.000000052063
   2      0.000000369464
   3     -0.000000781964
   4      0.000106506339
   5     -0.000016737481
   6      0.000011967523
   7     -0.000036068018
   8      0.000057260134
   9     -0.000040940819
  10      0.000000248910
  11     -0.000044348334
  12     -0.000005128226
  13      0.000032062385
  14      0.000011493099
  15      0.000002822131
  16     -0.000012021238
  17     -0.000028556718
  18     -0.000048862704
  19      0.000014236420
  20     -0.000005409922
  21      0.000016599351
  22      0.000010650159
  23      0.000010936382
  24      0.000020996063
  25      0.000221940150
  26     -0.000633371517
  27      0.000025762269
  28     -0.000030302568
  29     -0.000002849737
  30      0.000012096317
  31      0.000029160091
  32     -0.000082036896
  33      0.000009882760
  34     -0.000011805616
  35      0.000063131388
  36     -0.000006508514
  37     -0.000013879205
  38     -0.000020300803
  39      0.000924443809
  40      0.000408277094
  41      0.000000961267
  42      0.000039632158
 Ene=   0.25086987499861E+01
 Spin= Alpha
 Occup=    0.000000
   1     -0.000106526058
   2      0.000756875626
   3     -0.001604823774
   4     -0.000049689145
   5      0.000129083978
   6      0.000169833787
   7     -0.000130556563
   8     -0.000472634543
   9     -0.000624269925
  10      0.000499681421
  11     -0.000041945142
  12      0.000162714711
  13     -0.000094044054
  14      0.000228823328
  15     -0.000029077819
  16      0.000085276164
  17      0.000627154530
  18      0.000008672373
  19     -0.000195878275
  20     -0.000009890895
  21      0.000093836165
  22     -0.000268787220
  23      0.000153103212
  24      0.000708880865
  25     -0.000472745796
  26      0.000296225309
  27      0.000060434673
  28     -0.000122082451
  29     -0.000027044635
  30      0.000076638570
  31      0.000605752470
  32     -0.000033906328
  33      0.000049019561
  34     -0.000179491045
  35      0.000038064822
  36      0.000238689720
  37     -0.000192047196
  38      0.000724427503
  39     -0.001457297284
  40     -0.000749259629
  41      0.000029097096
  42     -0.000161934865
 Ene=   0.25086987499861E+01
 Spin= Alpha
 Occup=    0.000000
   1     -0.083730068793
   2      0.594906959600
   3     -1.261390992811
   4      0.000000058354
   5      0.101364254936
   6      0.133558570691
   7      0.000000233538
   8     -0.371152475503
   9     -0.490915220591
  10      0.392749596893
  11      0.000000021114
  12     -0.000000177690
  13     -0.073732113552
  14      0.179922638797
  15     -0.022838966498
  16      0.066958310656
  17      0.492770866569
  18      0.000000002179
  19     -0.153877753496
  20     -0.007807041932
  21     -0.000000149857
  22     -0.211200183756
  23      0.120404475558
  24      0.557292545072
  25      0.000000679425
  26     -0.000000099281
  27      0.047641025766
  28     -0.096136145159
  29     -0.021273747641
  30      0.060308874609
  31      0.476291082482
  32      0.000000065347
  33      0.038590944748
  34     -0.141147864567
  35     -0.000000102246
  36      0.187567585751
  37     -0.151031318039
  38      0.569286841312
  39      0.000002112391
  40      0.000001196349
  41      0.022870783134
  42     -0.127050054389
 Ene=   0.25543662929258E+01
 Spin= Alpha
 Occup=    0.000000
   1     -0.000000513817
   2      0.000003637541
   3     -0.000007415550
   4      0.000007740276
   5      0.000013252957
   6     -0.000008018306
   7     -0.000396903539
   8     -0.000043107453
   9      0.000025862937
  10      0.000002944944
  11      0.005589911356
  12     -0.003769972348
  13     -0.000025395211
  14     -0.000008204830
  15     -0.000002865546
  16      0.000013614735
  17      0.000017417794
  18      0.013176522029
  19     -0.000013519921
  20      0.000005794337
  21     -0.018996462048
  22     -0.000004442071
  23     -0.000010517131
  24      0.000010160024
  25      0.025848718344
  26     -0.423627807138
  27     -0.000005561443
  28      0.000025349448
  29      0.000002559089
  30     -0.000012605260
  31     -0.000011878026
  32     -0.013352180272
  33     -0.000009299673
  34      0.000008927934
  35      0.019430902961
  36      0.000010636730
  37      0.000006129644
  38     -0.000004225883
  39      0.405601190825
  40      0.114650664149
  41      0.000012334035
  42     -0.000023971335
 Ene=   0.25543662929258E+01
 Spin= Alpha
 Occup=    0.000000
   1     -0.000026785908
   2      0.000189641594
   3     -0.000387876062
   4     -0.000000149395
   5      0.000696553376
   6     -0.000422483261
   7      0.000007503415
   8     -0.002266874479
   9      0.001362223985
  10      0.000152541199
  11     -0.000106522903
  12      0.000071897729
  13     -0.001335974271
  14     -0.000432505576
  15     -0.000150551008
  16      0.000715282324
  17      0.000916090125
  18     -0.000251176586
  19     -0.000710224331
  20      0.000304811794
  21      0.000362133594
  22     -0.000234082083
  23     -0.000553719271
  24      0.000533805221
  25     -0.000492844466
  26      0.008074722349
  27     -0.000291075912
  28      0.001333720604
  29      0.000134909658
  30     -0.000664410534
  31     -0.000625218786
  32      0.000254499395
  33     -0.000489515910
  34      0.000470524097
  35     -0.000370349613
  36      0.000559196582
  37      0.000322346528
  38     -0.000225463832
  39     -0.007731629753
  40     -0.002185639698
  41      0.000649038260
  42     -0.001260769714
 Ene=   0.25736532682372E+01
 Spin= Alpha
 Occup=    0.000000
   1     -0.000022291997
   2      0.000152845239
   3     -0.000282684444
   4     -0.002273584238
   5      0.000003408752
   6      0.000053101642
   7     -0.098859266205
   8      0.000014158305
   9     -0.000184433599
  10      0.000123524231
  11      0.045553207601
  12      0.064358952098
  13      0.000031058386
  14      0.000068992130
  15     -0.000000971677
  16     -0.000005259006
  17      0.000068781617
  18     -0.025036204809
  19     -0.000016278116
  20     -0.000022676773
  21      0.054189014484
  22     -0.000028858836
  23      0.000065311742
  24      0.000032627942
  25     -0.200528613996
  26     -0.460866368273
  27     -0.000055047342
  28     -0.000092007374
  29     -0.000014210812
  30      0.000061534653
  31      0.000127497601
  32     -0.024931786572
  33      0.000040987247
  34     -0.000065665618
  35      0.054064876818
  36      0.000004449547
  37     -0.000041066028
  38      0.000179822487
  39     -0.370527315661
  40     -0.343829753182
  41     -0.000049439259
  42      0.000035783553
 Ene=   0.25736532682372E+01
 Spin= Alpha
 Occup=    0.000000
   1     -0.000163755836
   2      0.001122755159
   3     -0.002075677233
   4      0.000310681158
   5      0.000025915677
   6      0.000389724374