[Molden Format]
[Title]
generated by TRESC, real part1 of MOs of job O3
 
[Atoms] AU
 O   1   8   -4.5402454961    7.2177128343   -2.7178598716
 O   2   8   -2.2158043353    7.0339313734   -2.7178598716
 O   3   8   -5.4895719187    9.3477159757   -2.7178598716
[GTO]
  1 0
 s  5 1.0
     2256.4894524000        0.0059167515
      338.4991392200        0.0411156308
       76.9063833050        0.1812996088
       21.4088621130        0.4670469627
        6.6523625585        0.4440133421
 s  1 1.0
        0.8121693602        1.0000000000
 s  1 1.0
        0.2558870496        1.0000000000
 p  3 1.0
       17.7535366450        0.0431495830
        3.8671566736        0.2292558699
        1.0487786113        0.5099918107
 p  1 1.0
        0.2765100171        1.0000000000
 d  1 1.0
        1.2000000000        1.0000000000
 
  2 0
 s  5 1.0
     2256.4894524000        0.0059167515
      338.4991392200        0.0411156308
       76.9063833050        0.1812996088
       21.4088621130        0.4670469627
        6.6523625585        0.4440133421
 s  1 1.0
        0.8121693602        1.0000000000
 s  1 1.0
        0.2558870496        1.0000000000
 p  3 1.0
       17.7535366450        0.0431495830
        3.8671566736        0.2292558699
        1.0487786113        0.5099918107
 p  1 1.0
        0.2765100171        1.0000000000
 d  1 1.0
        1.2000000000        1.0000000000
 
  3 0
 s  5 1.0
     2256.4894524000        0.0059167515
      338.4991392200        0.0411156308
       76.9063833050        0.1812996088
       21.4088621130        0.4670469627
        6.6523625585        0.4440133421
 s  1 1.0
        0.8121693602        1.0000000000
 s  1 1.0
        0.2558870496        1.0000000000
 p  3 1.0
       17.7535366450        0.0431495830
        3.8671566736        0.2292558699
        1.0487786113        0.5099918107
 p  1 1.0
        0.2765100171        1.0000000000
 d  1 1.0
        1.2000000000        1.0000000000
 
[5D]
[7F]
[9G]
[MO]
 Ene=  -0.19528801005482E+02
 Spin= Alpha
 Occup=    0.000000
   1     -0.000001900883
   2     -0.000000074963
   3      0.000000048659
   4      0.000000296890
   5     -0.000000002894
   6     -0.000000004075
   7     -0.000000173409
   8      0.000000006986
   9      0.000000009702
  10     -0.000000000093
  11      0.000000084377
  12      0.000000060344
  13     -0.000000000103
  14      0.000000000591
  15      0.000000000768
  16      0.000000002475
  17     -0.000000014432
  18     -0.000000045363
  19     -0.000000001409
  20      0.000000000022
  21      0.000000044786
  22      0.000000006497
  23     -0.000000002196
  24     -0.000000001516
  25     -0.000000186537
  26     -0.000000001518
  27      0.000000002376
  28      0.000000000246
  29      0.000000000235
  30      0.000000002415
  31     -0.000000014208
  32      0.000000017695
  33      0.000000000463
  34     -0.000000001293
  35      0.000000033926
  36     -0.000000004173
  37      0.000000005265
  38     -0.000000001533
  39     -0.000000086476
  40      0.000000026938
  41     -0.000000002007
  42     -0.000000001479
 Ene=  -0.19528801005482E+02
 Spin= Alpha
 Occup=    1.000000
   1     -0.285647320677
   2     -0.011256608485
   3      0.007302571971
   4     -0.000000000055
   5     -0.000431725429
   6     -0.000609431460
   7     -0.000000000033
   8      0.001034866089
   9      0.001463257665
  10      0.000006102799
  11      0.000000000560
  12     -0.000000000172
  13     -0.000031761322
  14      0.000088202637
  15      0.000034571449
  16      0.000369719834
  17     -0.002151860809
  18     -0.000000000015
  19     -0.000212839221
  20      0.000003764869
  21     -0.000000000019
  22      0.000965640181
  23     -0.000329126406
  24     -0.000230303964
  25      0.000000000057
  26     -0.000000000056
  27      0.000359596275
  28      0.000036998620
  29      0.000040130630
  30      0.000369817123
  31     -0.002151292129
  32      0.000000000056
  33      0.000074593042
  34     -0.000199028720
  35      0.000000000035
  36     -0.000632716789
  37      0.000800361938
  38     -0.000230048603
  39     -0.000000000159
  40     -0.000000001196
  41     -0.000302733793
  42     -0.000196848399
 Ene=  -0.19338414729714E+02
 Spin= Alpha
 Occup=    1.000000
   1     -0.000098979304
   2      0.000121199688
   3     -0.000530237670
   4      0.000000000172
   5      0.000573929553
   6     -0.000340108171
   7     -0.000000000174
   8     -0.002156218884
   9      0.001472280106
  10     -0.000127169196
  11      0.000000003178
  12     -0.000000000181
  13      0.001048145361
  14      0.000270822677
  15     -0.503452646657
  16     -0.019071410628
  17      0.009569574417
  18     -0.000000000068
  19      0.001264285680
  20     -0.000257272537
  21     -0.000000000136
  22     -0.002609313129
  23      0.000427596443
  24     -0.000013588877
  25      0.000000000248
  26     -0.000000000089
  27     -0.000107768601
  28      0.000031425558
  29      0.368689192968
  30      0.014203275311
  31     -0.007582138221
  32      0.000000000057
  33      0.000566778759
  34     -0.000837913003
  35      0.000000000110
  36     -0.001208721821
  37      0.001966282647
  38      0.000057880574
  39      0.000000000021
  40     -0.000000000608
  41     -0.000041925329
  42     -0.000057190611
 Ene=  -0.19338414729714E+02
 Spin= Alpha
 Occup=    0.000000
   1     -0.000000000414
   2      0.000000000073
   3     -0.000000000217
   4     -0.000000076545
   5      0.000000001210
   6     -0.000000000792
   7      0.000000088732
   8     -0.000000004464
   9      0.000000002930
  10      0.000000000411
  11      0.000000096238
  12      0.000000031335
  13      0.000000001783
  14      0.000000000754
  15     -0.000000833665
  16     -0.000000031842
  17      0.000000016808
  18      0.000000392097
  19      0.000000002157
  20     -0.000000000501
  21     -0.000000209650
  22     -0.000000004905
  23      0.000000000941
  24     -0.000000000091
  25      0.000000071301
  26     -0.000000044677
  27     -0.000000000155
  28      0.000000000031
  29      0.000000891748
  30      0.000000033946
  31     -0.000000017263
  32      0.000000131924
  33      0.000000001232
  34     -0.000000001996
  35     -0.000000077061
  36     -0.000000002401
  37      0.000000004254
  38      0.000000000043
  39      0.000000057354
  40      0.000000069167
  41     -0.000000000124
  42     -0.000000000143
 Ene=  -0.19338272725394E+02
 Spin= Alpha
 Occup=    0.000000
   1      0.000000000696
   2     -0.000000001193
   3      0.000000005288
   4     -0.000000005274
   5     -0.000000000449
   6     -0.000000000364
   7      0.000000015451
   8      0.000000000487
   9      0.000000000088
  10      0.000000001547
  11      0.000000186346
  12     -0.000000021596
  13     -0.000000000631
  14      0.000000000878
  15      0.000000768090
  16      0.000000027894
  17     -0.000000011510
  18      0.000000300613
  19     -0.000000001695
  20      0.000000000062
  21     -0.000000144760
  22      0.000000002110
  23      0.000000000238
  24     -0.000000000244
  25     -0.000000039703
  26     -0.000000012070
  27      0.000000000249
  28     -0.000000000063
  29      0.000000637757
  30      0.000000022897
  31     -0.000000009008
  32     -0.000000190858
  33      0.000000000394
  34     -0.000000001262
  35      0.000000092637
  36     -0.000000000125
  37      0.000000001488
  38     -0.000000000241
  39     -0.000000206213
  40     -0.000000100339
  41     -0.000000000105
  42     -0.000000000136
 Ene=  -0.19338272725394E+02
 Spin= Alpha
 Occup=    1.000000
   1      0.000540612804
   2     -0.000683579840
   3      0.002992443003
   4      0.000000000090
   5     -0.000110694356
   6     -0.000289572629
   7     -0.000000000080
   8     -0.000110060842
   9      0.000368773710
  10      0.000717335077
  11     -0.000000001499
  12      0.000000000119
  13     -0.000060021285
  14      0.000543346318
  15      0.330160975753
  16      0.011823120281
  17     -0.004618961063
  18      0.000000000100
  19     -0.000674979782
  20     -0.000023897615
  21      0.000000000064
  22      0.000712977854
  23      0.000209926433
  24     -0.000128926782
  25     -0.000000000072
  26      0.000000000414
  27      0.000099041172
  28     -0.000036223193
  29      0.431212292016
  30      0.015678337429
  31     -0.006606354537
  32      0.000000000015
  33      0.000344587788
  34     -0.000869549379
  35     -0.000000000063
  36     -0.000327397935
  37      0.001238752041
  38     -0.000120463355
  39     -0.000000000009
  40      0.000000000236
  41     -0.000065668378
  42     -0.000108046198
 Ene=  -0.14233683186571E+01
 Spin= Alpha
 Occup=    1.000000
   1      0.197245271858
   2     -0.408091726604
   3     -0.191739315971
   4     -0.000000002946
   5     -0.065908619981
   6     -0.093288029041
   7      0.000000001726
   8     -0.026419500393
   9     -0.037329222273
  10      0.012115251288
  11      0.000000022339
  12     -0.000000001111
  13     -0.002279431986
  14      0.006425139352
  15      0.099280758960
  16     -0.200035023377
  17     -0.063070217365
  18      0.000000001350
  19      0.105306365285
  20     -0.016216951117
  21      0.000000001264
  22      0.017782898711
  23      0.000430462006
  24      0.006438906342
  25      0.000000000085
  26     -0.000000004041
  27     -0.012695230052
  28      0.003736274982
  29      0.099222138469
  30     -0.199918790071
  31     -0.063048204787
  32      0.000000004809
  33     -0.050541793271
  34      0.093728263352
  35     -0.000000002907
  36     -0.005512811419
  37      0.016908850963
  38      0.006434203328
  39      0.000000000143
  40     -0.000000020508
  41      0.007506114249
  42      0.010886762152
 Ene=  -0.14233683186571E+01
 Spin= Alpha
 Occup=    0.000000
   1     -0.000001224733
   2      0.000002534023
   3      0.000001190412
   4     -0.000069277658
   5      0.000000416577
   6      0.000000579693
   7      0.000008167365
   8      0.000000163199
   9      0.000000231737
  10     -0.000000075579
  11     -0.000000373315
  12     -0.000001218006
  13      0.000000014602
  14     -0.000000039659
  15     -0.000000617602
  16      0.000001244602
  17      0.000000393024
  18      0.000099387667
  19     -0.000000652772
  20      0.000000100915
  21     -0.000011435568
  22     -0.000000111336
  23     -0.000000002549
  24     -0.000000039770
  25     -0.000002361978
  26      0.000000410292
  27      0.000000078739
  28     -0.000000023538
  29     -0.000000615176
  30      0.000001239669
  31      0.000000389672
  32     -0.000053539584
  33      0.000000311610
  34     -0.000000581276
  35     -0.000001438892
  36      0.000000034412
  37     -0.000000104239
  38     -0.000000039876
  39     -0.000001284959
  40      0.000002595268
  41     -0.000000046552
  42     -0.000000067641
 Ene=  -0.11405786487849E+01
 Spin= Alpha
 Occup=    0.000000
   1      0.000000041264
   2     -0.000000078799
   3     -0.000000078819
   4      0.000327535614
   5      0.000031467075
   6     -0.000022020231
   7      0.000003766028
   8      0.000009205480
   9     -0.000006521927
  10     -0.000000001000
  11      0.000003713802
  12      0.000006386778
  13      0.000003219138
  14      0.000001143316
  15     -0.000020694402
  16      0.000042511344
  17      0.000022630216
  18     -0.000101999201
  19     -0.000014833784
  20     -0.000000782916
  21      0.000021776851
  22     -0.000004799008
  23      0.000000338177
  24     -0.000000738917
  25     -0.000002965775
  26      0.000000587769
  27      0.000001825476
  28      0.000000021493
  29      0.000020716053
  30     -0.000042553586
  31     -0.000022624402
  32     -0.000007433045
  33     -0.000004334320
  34      0.000014227140
  35      0.000023019394
  36     -0.000001907992
  37      0.000004410554
  38      0.000000741998
  39      0.000002669507
  40     -0.000005247177
  41      0.000001437876
  42      0.000001136676
 Ene=  -0.11405786487849E+01
 Spin= Alpha
 Occup=    1.000000
   1      0.000094363186
   2     -0.000179408526
   3     -0.000175689444
   4     -0.000000133614
   5      0.078580677649
   6     -0.055011139209
   7      0.000000000910
   8      0.022997391081
   9     -0.016290291306
  10     -0.000002141580
  11     -0.000000011954
  12     -0.000000003487
  13      0.008040559337
  14      0.002855620977
  15     -0.051699317337
  16      0.106203002926
  17      0.056531932109
  18      0.000000038220
  19     -0.037064853667
  20     -0.001956602749
  21     -0.000000010416
  22     -0.011987206944
  23      0.000842986001
  24     -0.001847047846
  25      0.000000000800
  26      0.000000000406
  27      0.004561452162
  28      0.000052861242
  29      0.051754889954
  30     -0.106306256338
  31     -0.056542591465
  32     -0.000000000837
  33     -0.010814836003
  34      0.035535781545
  35     -0.000000009922
  36     -0.004768207224
  37      0.011020066140
  38      0.001854272782
  39     -0.000000000685
  40      0.000000002464
  41      0.003591563434
  42      0.002838272357
 Ene=  -0.78027797276707E+00
 Spin= Alpha
 Occup=    0.999997
   1     -0.047508303350
   2      0.105721486224
   3      0.086487884432
   4      0.000000554314
   5     -0.028946621221
   6     -0.041459236990
   7      0.000000214095
   8     -0.012946029647
   9     -0.018348723890
  10      0.001864926916
  11      0.000000023690
  12      0.000000017693
  13      0.000764278909
  14     -0.002175555612
  15      0.042401529733
  16     -0.087957557917
  17     -0.077284425723
  18      0.000000359308
  19     -0.027612524212
  20     -0.012230022012
  21      0.000000113246
  22     -0.008889179442
  23     -0.006758351380
  24     -0.000936283405
  25     -0.000000026239
  26      0.000000001344
  27      0.001320717672
  28      0.001660934039
  29      0.042207474469
  30     -0.087553573344
  31     -0.076955015133
  32      0.000000148615
  33     -0.001864247843
  34     -0.030001271020
  35      0.000000064692
  36     -0.003317125216
  37     -0.010586231829
  38     -0.000937505775
  39      0.000000008468
  40     -0.000000013313
  41     -0.002064338406
  42      0.000438088024
 Ene=  -0.78027797276707E+00
 Spin= Alpha
 Occup=    0.000003
   1     -0.000058937077
   2      0.000131154327
   3      0.000107296094
   4     -0.000445453804
   5     -0.000035899661
   6     -0.000051425693
   7     -0.000168942021
   8     -0.000016061409
   9     -0.000022757978
  10      0.000002313622
  11     -0.000016426083
  12     -0.000013299947
  13      0.000000947586
  14     -0.000002699076
  15      0.000052605101
  16     -0.000109123457
  17     -0.000095881753
  18     -0.000288528865
  19     -0.000034252319
  20     -0.000015170840
  21     -0.000090042954
  22     -0.000011028023
  23     -0.000008384899
  24     -0.000001161492
  25      0.000021285008
  26     -0.000001833658
  27      0.000001638202
  28      0.000002060669
  29      0.000052357674
  30     -0.000108606733
  31     -0.000095470624
  32     -0.000114365544
  33     -0.000002312489
  34     -0.000037220598
  35     -0.000051267333
  36     -0.000004114942
  37     -0.000013131641
  38     -0.000001163179
  39     -0.000006506061
  40      0.000013006959
  41     -0.000002560843
  42      0.000000542970
 Ene=  -0.63868256423368E+00
 Spin= Alpha
 Occup=    0.000582
   1      0.000090965068
   2     -0.000018670790
   3      0.000227623536
   4     -0.003896761630
   5      0.005445664646
   6      0.006119714108
   7     -0.002247737471
   8      0.002813314669
   9      0.003491429908
  10     -0.000187121277
  11     -0.000118597820
  12     -0.000167657299
  13     -0.000133004838
  14      0.000432356553
  15      0.001692856919
  16     -0.003383193378
  17     -0.004509474635
  18     -0.001748066471
  19     -0.003006118849
  20      0.003406287460
  21     -0.000935709757
  22     -0.001044669137
  23      0.001678043106
  24     -0.000124444077
  25      0.000180948067
  26     -0.000021257669
  27      0.000104290703
  28     -0.000307085200
  29      0.001186181301
  30     -0.002348595892
  31     -0.003374747227
  32     -0.001747236446
  33      0.004456773711
  34     -0.000891557484
  35     -0.000935222100
  36      0.001979714169
  37     -0.000004938534
  38     -0.000100882994
  39     -0.000080373577
  40      0.000163402877
  41      0.000158478850
  42     -0.000308981701
 Ene=  -0.63868256423367E+00
 Spin= Alpha
 Occup=    0.999418
   1     -0.000001270218
   2      0.000000273684
   3     -0.000003160754
   4     -0.280031102253
   5     -0.000075716080
   6     -0.000085162399
   7     -0.161528362198
   8     -0.000039126126
   9     -0.000048585709
  10      0.000002602912
  11     -0.008522504438
  12     -0.012048126769
  13      0.000001851701
  14     -0.000006013732
  15     -0.000023532641
  16      0.000047029395
  17      0.000062695789
  18     -0.125620633489
  19      0.000041783781
  20     -0.000047392427
  21     -0.067242538595
  22      0.000014514580
  23     -0.000023349163
  24      0.000001729834
  25      0.013003480044
  26     -0.001527670329
  27     -0.000001448793
  28      0.000004272448
  29     -0.000016518392
  30      0.000032715306
  31      0.000046966174
  32     -0.125558410024
  33     -0.000062016336
  34      0.000012457219
  35     -0.067206659544
  36     -0.000027544494
  37      0.000000091825
  38      0.000001405463
  39     -0.005775908916
  40      0.011742415620
  41     -0.000002202122
  42      0.000004299565
 Ene=  -0.62220699281270E+00
 Spin= Alpha
 Occup=    0.000402
   1      0.000082446131
   2     -0.000140283807
   3     -0.000058788482
   4     -0.005876032260
   5      0.001180110771
   6      0.001662856273
   7     -0.003621475896
   8      0.000697808633
   9      0.000985715653
  10     -0.000050105972
  11     -0.000211536487
  12     -0.000246289899
  13     -0.000038330150
  14      0.000108726813
  15      0.000314080435
  16     -0.000619402134
  17     -0.000919853129
  18     -0.003322342123
  19     -0.000706080786
  20      0.000907561362
  21     -0.001714312228
  22     -0.000219651415
  23      0.000464905233
  24     -0.000029115384
  25      0.000302958992
  26     -0.000036381839
  27      0.000023346030
  28     -0.000083251729
  29      0.000312170448
  30     -0.000615539464
  31     -0.000915429817
  32     -0.002266511189
  33      0.001088151028
  34     -0.000361751589
  35     -0.001355161935
  36      0.000510423134
  37     -0.000050824215
  38     -0.000029012986
  39     -0.000118974557
  40      0.000241008214
  41      0.000034320507
  42     -0.000079314774
 Ene=  -0.62220699281270E+00
 Spin= Alpha
 Occup=    0.999598
   1     -0.016686848590
   2      0.028393238807
   3      0.011897980728
   4     -0.000029012043
   5     -0.238834183901
   6     -0.336562226089
   7     -0.000017885199
   8     -0.141225595904
   9     -0.199507642539
  10      0.010140998588
  11     -0.000001054809
  12     -0.000001215518
  13      0.007758384177
  14     -0.022005317550
  15     -0.063562722082
  16      0.125352490610
  17      0.186159980970
  18     -0.000016413701
  19      0.142893865398
  20     -0.183686433162
  21     -0.000008470353
  22      0.044451040206
  23     -0.094094397914
  24      0.005892298983
  25      0.000001497107
  26     -0.000000178161
  27     -0.004724535721
  28      0.016849879292
  29     -0.063185370910
  30      0.124588870426
  31      0.185289887641
  32     -0.000011168597
  33     -0.220233490490
  34      0.073228823142
  35     -0.000006685318
  36     -0.103305979936
  37      0.010291051813
  38      0.005872386875
  39     -0.000000587338
  40      0.000001192371
  41     -0.006945596500
  42      0.016052957471
 Ene=  -0.60877335510172E+00
 Spin= Alpha
 Occup=    0.000020
   1      0.000000153708
   2     -0.000000345029
   3     -0.000000196214
   4     -0.000939630617
   5      0.000837696121
   6     -0.000591529003
   7     -0.000795901305
   8      0.000414149520
   9     -0.000291835483
  10     -0.000000024166
  11     -0.000059608072
  12     -0.000051371380
  13      0.000037688781
  14      0.000013469038
  15      0.000309909684
  16     -0.000625680185
  17     -0.000783554390
  18     -0.001341536079
  19     -0.000830958330
  20     -0.000124102932
  21     -0.000551528356
  22     -0.000360567743
  23     -0.000055467849
  24     -0.000028568308
  25      0.000078338488
  26     -0.000008896816
  27      0.000042342344
  28      0.000011007314
  29     -0.000309745351
  30      0.000625356273
  31      0.000782824715
  32     -0.000683800136
  33     -0.000156764885
  34      0.000825155122
  35     -0.000318813121
  36     -0.000066689330
  37      0.000358724366
  38      0.000028531200
  39     -0.000025503428
  40      0.000050119348
  41      0.000039907138
  42      0.000017974238
 Ene=  -0.60877335510172E+00
 Spin= Alpha
 Occup=    0.999980
   1     -0.000051681608
   2      0.000116799062
   3      0.000065767326
   4     -0.000002678990
   5     -0.288338342530
   6      0.203644708321
   7     -0.000002268404
   8     -0.142548347567
   9      0.100472438284
  10      0.000007450633
  11     -0.000000193357
  12     -0.000000148205
  13     -0.012973725756
  14     -0.004634689891
  15     -0.106673804765
  16      0.215365124275
  17      0.269704279354
  18     -0.000003884323
  19      0.286022534832
  20      0.042734688463
  21     -0.000001598628
  22      0.124111832624
  23      0.019101452173
  24      0.009833569406
  25      0.000000224974
  26     -0.000000025875
  27     -0.014574819508
  28     -0.003790068776
  29      0.106627934209
  30     -0.215275549898
  31     -0.269481599325
  32     -0.000001975087
  33      0.053976831026
  34     -0.284044343351
  35     -0.000000913735
  36      0.022963488771
  37     -0.123482897266
  38     -0.009821746800
  39     -0.000000072452
  40      0.000000143976
  41     -0.013736391145
  42     -0.006188353393
 Ene=  -0.37710012512671E+00
 Spin= Alpha
 Occup=    0.999376
   1      0.000000539994
   2     -0.000001360985
   3     -0.000001250376
   4      0.000023048200
   5     -0.000006165223
   6     -0.000007626850
   7      0.000014530613
   8     -0.000003726153
   9     -0.000005782269
  10      0.000000306163
  11      0.001041081785
  12     -0.000739204714
  13     -0.000000284961
  14     -0.000000039892
  15     -0.000001001595
  16      0.000001803800
  17      0.000004424410
  18      0.015647470869
  19      0.000000863793
  20     -0.000000027054
  21      0.011253373062
  22      0.000002021784
  23     -0.000000937553
  24      0.000000133492
  25     -0.000649361576
  26      0.000034999832
  27     -0.000000200620
  28      0.000000297881
  29     -0.000000999420
  30      0.000001972785
  31      0.000004496662
  32     -0.015681726993
  33      0.000008911811
  34      0.000002479171
  35     -0.011266368013
  36      0.000004608196
  37      0.000002367038
  38      0.000000077794
  39     -0.000249586305
  40      0.000599316503
  41      0.000000104461
  42      0.000000067938
 Ene=  -0.37710012512670E+00
 Spin= Alpha
 Occup=    0.000624
   1     -0.000070677734
   2      0.000178717061
   3      0.000162011897
   4      0.000000194787
   5      0.000820432076
   6      0.001012475358
   7      0.000000105811
   8      0.000493431830
   9      0.000767320738
  10     -0.000040700781
  11      0.000007912241
  12     -0.000005617840
  13      0.000038457527
  14      0.000004951118
  15      0.000132378255
  16     -0.000237934577
  17     -0.000585236048
  18      0.000118898387
  19     -0.000117879732
  20      0.000006647727
  21      0.000085510131
  22     -0.000270028525
  23      0.000125865325
  24     -0.000017736331
  25     -0.000004936572
  26      0.000000266312
  27      0.000026720683
  28     -0.000039612505
  29      0.000132119696
  30     -0.000260674777
  31     -0.000595427768
  32     -0.000119174870
  33     -0.001195801625
  34     -0.000336338991
  35     -0.000085617951
  36     -0.000621447055
  37     -0.000318409792
  38     -0.000010309934
  39     -0.000001894686
  40      0.000004551709
  41     -0.000014253406
  42     -0.000008642568
 Ene=  -0.36237670165054E+00
 Spin= Alpha
 Occup=    0.999437
   1     -0.001690239692
   2      0.003289051091
   3      0.006742786750
   4      0.000000252515
   5     -0.004150043447
   6     -0.005026234322
   7      0.000000157168
   8     -0.001605414450
   9     -0.003313773890
  10      0.000330626066
  11     -0.000000118680
  12      0.000000087305
  13     -0.000574633342
  14      0.000565962148
  15      0.000484555814
  16     -0.001609379106
  17     -0.000444768885
  18     -0.000001933789
  19      0.006628122246
  20      0.003455847175
  21     -0.000001386121
  22      0.003942549393
  23      0.002869084293
  24      0.000095789791
  25      0.000000067885
  26     -0.000000003203
  27     -0.000259239180
  28      0.000012444831
  29      0.000359893888
  30     -0.001117887078
  31      0.000076098492
  32      0.000001593854
  33      0.012717094559
  34      0.009536338458
  35      0.000001274624
  36      0.009515394727
  37      0.005905654607
  38      0.000037985841
  39      0.000000032621
  40     -0.000000071705
  41      0.000387470083
  42     -0.000194684029
 Ene=  -0.36237670165053E+00
 Spin= Alpha
 Occup=    0.000563
   1     -0.000000478004
   2      0.000000929633
   3      0.000001904185
   4     -0.000888585199
   5     -0.000001180864
   6     -0.000001430560
   7     -0.000555113778
   8     -0.000000448132
   9     -0.000000947826
  10      0.000000092938
  11      0.000438991783
  12     -0.000325378465
  13     -0.000000169059
  14      0.000000158751
  15      0.000000138714
  16     -0.000000461431
  17     -0.000000128265
  18      0.007143330044
  19      0.000001899283
  20      0.000000890466
  21      0.005122274299
  22      0.000001136582
  23      0.000000753610
  24      0.000000027782
  25     -0.000260950918
  26      0.000013002659
  27     -0.000000075419
  28      0.000000006287
  29      0.000000100227
  30     -0.000000312184
  31      0.000000032507
  32     -0.005926963505
  33      0.000003718030
  34      0.000002713983
  35     -0.004729697752
  36      0.000002776473
  37      0.000001676201
  38      0.000000010000
  39     -0.000111573041
  40      0.000269271981
  41      0.000000111502
  42     -0.000000058365
 Ene=  -0.34703409819415E+00
 Spin= Alpha
 Occup=    0.999987
   1      0.059786522591
   2     -0.113682418323
   3     -0.247553215199
   4     -0.000000558637
   5      0.175677642156
   6      0.249027970642
   7     -0.000000280049
   8      0.106313292577
   9      0.150415739841
  10     -0.014199542470
  11      0.000000031198
  12     -0.000000018030
  13      0.009796454490
  14     -0.027971047116
  15     -0.011193565820
  16      0.043521668361
  17     -0.020757995729
  18      0.000000909137
  19     -0.212965012676
  20     -0.389121777740
  21      0.000000553529
  22     -0.129811081224
  23     -0.298474433774
  24     -0.003091070806
  25     -0.000000014759
  26      0.000000001973
  27      0.009639653379
  28      0.007088718083
  29     -0.011173337069
  30      0.043532890614
  31     -0.020838552624
  32      0.000000063872
  33     -0.292748404427
  34     -0.330273814229
  35     -0.000000109317
  36     -0.235832299195
  37     -0.221840291663
  38     -0.003115838826
  39     -0.000000008180
  40      0.000000009890
  41     -0.011918091555
  42     -0.000660557272
 Ene=  -0.34703409819415E+00
 Spin= Alpha
 Occup=    0.000013
   1     -0.000035973291
   2      0.000068401824
   3      0.000148951964
   4     -0.000956655797
   5     -0.000105712320
   6     -0.000149840432
   7     -0.000473587625
   8     -0.000063964006
   9     -0.000090507472
  10      0.000008543103
  11      0.000052363900
  12     -0.000033316194
  13     -0.000005898468
  14      0.000016829319
  15      0.000006736044
  16     -0.000026189987
  17      0.000012487216
  18      0.001586594939
  19      0.000128151491
  20      0.000234083728
  21      0.000973297234
  22      0.000078119432
  23      0.000179557287
  24      0.000001860402
  25     -0.000026314073
  26      0.000003764103
  27     -0.000005801387
  28     -0.000004264345
  29      0.000006721578
  30     -0.000026189181
  31      0.000012540934
  32      0.000053381501
  33      0.000176218673
  34      0.000198739444
  35     -0.000235517984
  36      0.000141955133
  37      0.000133487277
  38      0.000001874535
  39     -0.000013662716
  40      0.000036522718
  41      0.000007172488
  42      0.000000394590
 Ene=  -0.17087332809835E+00
 Spin= Alpha
 Occup=    0.000000
   1     -0.000022362794
   2      0.000045724951
   3      0.000111492795
   4      0.139182852032
   5     -0.000062456871
   6     -0.000058623129
   7      0.106576841115
   8     -0.000100484185
   9     -0.000076756233
  10      0.000007863626
  11     -0.000797318329
  12     -0.001123893045
  13     -0.000012323370
  14      0.000007901530
  15      0.000004286778
  16     -0.000020434711
  17      0.000042670267
  18     -0.118461662923
  19      0.000110185599
  20      0.000034859217
  21     -0.100261159844
  22      0.000129818479
  23      0.000058223210
  24      0.000003944553
  25     -0.001010331502
  26     -0.000421649341
  27     -0.000007969775
  28      0.000000656769
  29      0.000008585321
  30     -0.000026950671
  31     -0.000001122412
  32     -0.118454875247
  33      0.000126504872
  34      0.000096959385
  35     -0.100249961316
  36      0.000185465198
  37      0.000091276541
  38     -0.000000438813
  39     -0.000063163793
  40     -0.001094020116
  41      0.000003315186
  42     -0.000002653387
 Ene=  -0.17087332809834E+00
 Spin= Alpha
 Occup=    0.000000
   1     -0.000146450371
   2      0.000299451133
   3      0.000730166024
   4     -0.021274247154
   5     -0.000409022239
   6     -0.000383914007