[Molden Format]
[Title]
generated by TRESC, real part2 of MOs of job twisted_C2H4
 
[Atoms] AU
 C   1   6    0.0000000000    0.0000000000    1.3668709329
 H   2   1    0.0000000000    1.7631351343    2.4609882652
 H   3   1    0.0000000000   -1.7631351343    2.4609882652
 C   4   6    0.0000000000    0.0000000000   -1.3668709329
 H   5   1    1.7631351343    0.0000000000   -2.4609882652
 H   6   1   -1.7631351343    0.0000000000   -2.4609882652
[GTO]
  1 0
 s  5 1.0
     1238.4016938000        0.0059599745
      186.2900499200        0.0422621111
       42.2511763500        0.1866575214
       11.6765579300        0.4675815865
        3.5930506500        0.4422897287
 s  1 1.0
        0.4024514700        1.0000000000
 s  1 1.0
        0.1309018300        1.0000000000
 p  3 1.0
        9.4680970600        0.0570294585
        2.0103545100        0.3130471495
        0.5477100500        0.7605135301
 p  1 1.0
        0.1526861400        1.0000000000
 d  1 1.0
        0.8000000000        1.0000000000
 
  2 0
 s  3 1.0
       13.0107010000        0.0391282527
        1.9622572000        0.2855840539
        0.4445379600        0.7689908602
 s  1 1.0
        0.1219496200        1.0000000000
 p  1 1.0
        0.8000000000        1.0000000000
 
  3 0
 s  3 1.0
       13.0107010000        0.0391282527
        1.9622572000        0.2855840539
        0.4445379600        0.7689908602
 s  1 1.0
        0.1219496200        1.0000000000
 p  1 1.0
        0.8000000000        1.0000000000
 
  4 0
 s  5 1.0
     1238.4016938000        0.0059599745
      186.2900499200        0.0422621111
       42.2511763500        0.1866575214
       11.6765579300        0.4675815865
        3.5930506500        0.4422897287
 s  1 1.0
        0.4024514700        1.0000000000
 s  1 1.0
        0.1309018300        1.0000000000
 p  3 1.0
        9.4680970600        0.0570294585
        2.0103545100        0.3130471495
        0.5477100500        0.7605135301
 p  1 1.0
        0.1526861400        1.0000000000
 d  1 1.0
        0.8000000000        1.0000000000
 
  5 0
 s  3 1.0
       13.0107010000        0.0391282527
        1.9622572000        0.2855840539
        0.4445379600        0.7689908602
 s  1 1.0
        0.1219496200        1.0000000000
 p  1 1.0
        0.8000000000        1.0000000000
 
  6 0
 s  3 1.0
       13.0107010000        0.0391282527
        1.9622572000        0.2855840539
        0.4445379600        0.7689908602
 s  1 1.0
        0.1219496200        1.0000000000
 p  1 1.0
        0.8000000000        1.0000000000
 
[5D]
[7F]
[9G]
[MO]
 Ene=   0.69620655976959E+00
 Spin= Alpha
 Occup=    0.000000
   1      0.000000000000
   2      0.000000000000
   3      0.000000000000
   4      0.000000000000
   5      0.000000000000
   6      0.000000000000
   7      0.000000000000
   8      0.000000000000
   9      0.000000000000
  10      0.000000000000
  11      0.000000000000
  12      0.000000000000
  13      0.000000000000
  14      0.000000000000
  15      0.000000000000
  16      0.000000000000
  17      0.000000000000
  18      0.000000000000
  19      0.000000000000
  20      0.000000000000
  21      0.000000000000
  22      0.000000000000
  23      0.000000000000
  24      0.000000000000
  25      0.000000000000
  26      0.000000000000
  27      0.000000000000
  28      0.000000000000
  29      0.000000000000
  30      0.000000000000
  31      0.000000000000
  32      0.000000000000
  33      0.000000000000
  34      0.000000000000
  35      0.000000000000
  36      0.000000000000
  37      0.000000000000
  38      0.000000000000
  39      0.000000000000
  40      0.000000000000
  41      0.000000000000
  42      0.000000000000
  43      0.000000000000
  44      0.000000000000
  45      0.000000000000
  46      0.000000000000
  47      0.000000000000
  48      0.000000000000
 Ene=   0.69620655976959E+00
 Spin= Alpha
 Occup=    0.000000
   1      0.000000000000
   2      0.000000000000
   3      0.000000000000
   4      0.000000000000
   5      0.000000000000
   6      0.000000000000
   7      0.000000000000
   8      0.000000000000
   9      0.000000000000
  10      0.000000000000
  11      0.000000000000
  12      0.000000000000
  13      0.000000000000
  14      0.000000000000
  15      0.000000000000
  16      0.000000000000
  17      0.000000000000
  18      0.000000000000
  19      0.000000000000
  20      0.000000000000
  21      0.000000000000
  22      0.000000000000
  23      0.000000000000
  24      0.000000000000
  25      0.000000000000
  26      0.000000000000
  27      0.000000000000
  28      0.000000000000
  29      0.000000000000
  30      0.000000000000
  31      0.000000000000
  32      0.000000000000
  33      0.000000000000
  34      0.000000000000
  35      0.000000000000
  36      0.000000000000
  37      0.000000000000
  38      0.000000000000
  39      0.000000000000
  40      0.000000000000
  41      0.000000000000
  42      0.000000000000
  43      0.000000000000
  44      0.000000000000
  45      0.000000000000
  46      0.000000000000
  47      0.000000000000
  48      0.000000000000
 Ene=   0.73643440012579E+00
 Spin= Alpha
 Occup=    0.000000
   1      0.060530398504
   2     -0.464560178233
   3      3.523545357582
   4     -0.000000000000
   5     -0.000000000000
   6      0.751010866249
   7     -0.000000000000
   8      0.000000000001
   9     -2.610201707273
  10      0.091959130268
  11      0.000000000000
  12      0.000000000000
  13      0.081906847658
  14     -0.000000000000
  15     -0.283235362825
  16      0.415165281431
  17      0.000000000000
  18     -0.073460101716
  19      0.012089715205
  20     -0.283235362825
  21      0.415165281433
  22      0.000000000000
  23      0.073460101717
  24      0.012089715205
  25     -0.060530398504
  26      0.464560178235
  27     -3.523545357585
  28     -0.000000000000
  29     -0.000000000000
  30      0.751010866249
  31      0.000000000000
  32     -0.000000000000
  33     -2.610201707272
  34     -0.091959130268
  35     -0.000000000000
  36     -0.000000000000
  37      0.081906847657
  38     -0.000000000000
  39      0.283235362825
  40     -0.415165281430
  41      0.073460101716
  42     -0.000000000000
  43      0.012089715205
  44      0.283235362824
  45     -0.415165281430
  46     -0.073460101716
  47      0.000000000000
  48      0.012089715205
 Ene=   0.75118879463522E+00
 Spin= Alpha
 Occup=    0.000000
   1      0.000000000000
   2      0.000000000000
   3      0.000000000000
   4      0.000000000000
   5      0.000000000000
   6      0.000000000000
   7      0.000000000000
   8      0.000000000000
   9      0.000000000000
  10      0.000000000000
  11      0.000000000000
  12      0.000000000000
  13      0.000000000000
  14      0.000000000000
  15      0.000000000000
  16      0.000000000000
  17      0.000000000000
  18      0.000000000000
  19      0.000000000000
  20      0.000000000000
  21      0.000000000000
  22      0.000000000000
  23      0.000000000000
  24      0.000000000000
  25      0.000000000000
  26      0.000000000000
  27      0.000000000000
  28      0.000000000000
  29      0.000000000000
  30      0.000000000000
  31      0.000000000000
  32      0.000000000000
  33      0.000000000000
  34      0.000000000000
  35      0.000000000000
  36      0.000000000000
  37      0.000000000000
  38      0.000000000000
  39      0.000000000000
  40      0.000000000000
  41      0.000000000000
  42      0.000000000000
  43      0.000000000000
  44      0.000000000000
  45      0.000000000000
  46      0.000000000000
  47      0.000000000000
  48      0.000000000000
 Ene=   0.11752126646817E+01
 Spin= Alpha
 Occup=    0.000000
   1     -0.000000000000
   2      0.000000000000
   3     -0.000000000000
   4      0.000000000000
   5     -0.000000000000
   6     -0.000000000000
   7     -0.000000000000
   8     -0.000000000000
   9      0.000000000000
  10     -0.000000000000
  11      0.000000000000
  12     -0.000000000000
  13     -0.000000000000
  14     -0.340276103488
  15      0.000000000000
  16      0.000000000000
  17     -0.350135185930
  18      0.000000000000
  19      0.000000000000
  20     -0.000000000000
  21     -0.000000000000
  22      0.350135185930
  23      0.000000000000
  24     -0.000000000000
  25      0.000000000000
  26     -0.000000000000
  27      0.000000000000
  28     -0.000000000000
  29      0.000000000000
  30     -0.000000000000
  31      0.000000000000
  32      0.000000000000
  33      0.000000000000
  34     -0.000000000000
  35     -0.000000000000
  36      0.000000000000
  37     -0.000000000000
  38     -0.340276103488
  39     -0.000000000000
  40     -0.000000000000
  41     -0.000000000000
  42     -0.350135185930
  43     -0.000000000000
  44     -0.000000000000
  45      0.000000000000
  46     -0.000000000000
  47      0.350135185930
  48      0.000000000000
 Ene=   0.12104965744595E+01
 Spin= Alpha
 Occup=    0.000000
   1      0.000000000000
   2      0.000000000000
   3      0.000000000000
   4      0.000000000000
   5      0.000000000000
   6      0.000000000000
   7      0.000000000000
   8      0.000000000000
   9      0.000000000000
  10      0.000000000000
  11      0.000000000000
  12      0.000000000000
  13      0.000000000000
  14      0.000000000000
  15      0.000000000000
  16      0.000000000000
  17      0.000000000000
  18      0.000000000000
  19      0.000000000000
  20      0.000000000000
  21      0.000000000000
  22      0.000000000000
  23      0.000000000000
  24      0.000000000000
  25      0.000000000000
  26      0.000000000000
  27      0.000000000000
  28      0.000000000000
  29      0.000000000000
  30      0.000000000000
  31      0.000000000000
  32      0.000000000000
  33      0.000000000000
  34      0.000000000000
  35      0.000000000000
  36      0.000000000000
  37      0.000000000000
  38      0.000000000000
  39      0.000000000000
  40      0.000000000000
  41      0.000000000000
  42      0.000000000000
  43      0.000000000000
  44      0.000000000000
  45      0.000000000000
  46      0.000000000000
  47      0.000000000000
  48      0.000000000000
 Ene=   0.12197378083708E+01
 Spin= Alpha
 Occup=    0.000000
   1     -0.000000000000
   2      0.000000000000
   3      0.000000000000
   4     -0.000000000000
   5     -0.000000000000
   6      0.000000000000
   7      0.000000000000
   8      0.000000000000
   9     -0.000000000000
  10     -0.000000000000
  11     -0.000000000000
  12     -0.000000000000
  13      0.000000000000
  14     -0.286923709527
  15     -0.000000000000
  16     -0.000000000000
  17     -0.386891104989
  18     -0.000000000000
  19      0.000000000000
  20     -0.000000000000
  21      0.000000000000
  22      0.386891104989
  23     -0.000000000000
  24     -0.000000000000
  25     -0.000000000000
  26      0.000000000000
  27     -0.000000000000
  28      0.000000000000
  29      0.000000000000
  30      0.000000000000
  31     -0.000000000000
  32     -0.000000000000
  33     -0.000000000000
  34      0.000000000000
  35      0.000000000000
  36      0.000000000000
  37      0.000000000000
  38      0.286923709527
  39      0.000000000000
  40      0.000000000000
  41      0.000000000000
  42      0.386891104989
  43      0.000000000000
  44     -0.000000000000
  45      0.000000000000
  46      0.000000000000
  47     -0.386891104989
  48     -0.000000000000
 Ene=   0.12511295214896E+01
 Spin= Alpha
 Occup=    0.000000
   1      0.000000000000
   2      0.000000000000
   3      0.000000000000
   4      0.000000000000
   5      0.000000000000
   6      0.000000000000
   7      0.000000000000
   8      0.000000000000
   9      0.000000000000
  10      0.000000000000
  11      0.000000000000
  12      0.000000000000
  13      0.000000000000
  14      0.000000000000
  15      0.000000000000
  16      0.000000000000
  17      0.000000000000
  18      0.000000000000
  19      0.000000000000
  20      0.000000000000
  21      0.000000000000
  22      0.000000000000
  23      0.000000000000
  24      0.000000000000
  25      0.000000000000
  26      0.000000000000
  27      0.000000000000
  28      0.000000000000
  29      0.000000000000
  30      0.000000000000
  31      0.000000000000
  32      0.000000000000
  33      0.000000000000
  34      0.000000000000
  35      0.000000000000
  36      0.000000000000
  37      0.000000000000
  38      0.000000000000
  39      0.000000000000
  40      0.000000000000
  41      0.000000000000
  42      0.000000000000
  43      0.000000000000
  44      0.000000000000
  45      0.000000000000
  46      0.000000000000
  47      0.000000000000
  48      0.000000000000
 Ene=   0.14912132782964E+01
 Spin= Alpha
 Occup=    0.000000
   1      0.000000000000
   2     -0.000000000000
   3      0.000000000000
   4     -0.013370915039
   5      0.000084160174
   6      0.000000000000
   7      0.450283768575
   8     -0.004943594123
   9     -0.000000000000
  10      0.000000000000
  11     -0.463511827785
  12     -0.001099371006
  13     -0.000000000000
  14      0.000000000000
  15      0.002031720138
  16      0.000544860567
  17     -0.405153286925
  18     -0.003472426643
  19      0.006012651234
  20     -0.002031720138
  21     -0.000544860567
  22     -0.405153286925
  23     -0.003472426643
  24     -0.006012651234
  25     -0.000000000000
  26      0.000000000000
  27     -0.000000000000
  28      0.005508636357
  29     -0.000204278966
  30      0.000000000000
  31     -0.323578967334
  32      0.006879372323
  33      0.000000000000
  34      0.000000000000
  35      0.071958442779
  36      0.007081468758
  37      0.000000000000
  38     -0.000000000000
  39      0.132984603457
  40      0.035663409096
  41     -0.227284886118
  42     -0.006189875148
  43     -0.393553238567
  44     -0.132984603457
  45     -0.035663409096
  46     -0.227284886118
  47     -0.006189875148
  48      0.393553238567
 Ene=   0.14912132782964E+01
 Spin= Alpha
 Occup=    0.000000
   1     -0.000000000000
   2      0.000000000000
   3      0.000000000000
   4     -0.000204278966
   5     -0.005508636357
   6      0.000000000000
   7      0.006879372323
   8      0.323578967334
   9     -0.000000000000
  10      0.000000000000
  11     -0.007081468758
  12      0.071958442779
  13      0.000000000000
  14     -0.000000000000
  15     -0.132984603457
  16     -0.035663409096
  17     -0.006189875148
  18      0.227284886118
  19     -0.393553238567
  20      0.132984603457
  21      0.035663409096
  22     -0.006189875148
  23      0.227284886118
  24      0.393553238567
  25      0.000000000000
  26     -0.000000000000
  27     -0.000000000000
  28      0.000084160174
  29      0.013370915039
  30     -0.000000000000
  31     -0.004943594123
  32     -0.450283768575
  33     -0.000000000000
  34      0.000000000000
  35      0.001099371006
  36     -0.463511827785
  37      0.000000000000
  38     -0.000000000000
  39      0.002031720138
  40      0.000544860567
  41     -0.003472426643
  42      0.405153286925
  43     -0.006012651234
  44     -0.002031720138
  45     -0.000544860567
  46     -0.003472426643
  47      0.405153286925
  48      0.006012651234
 Ene=   0.15138875300270E+01
 Spin= Alpha
 Occup=    0.000000
   1      0.000000000000
   2      0.000000000000
   3      0.000000000000
   4      0.000000000000
   5      0.000000000000
   6      0.000000000000
   7      0.000000000000
   8      0.000000000000
   9      0.000000000000
  10      0.000000000000
  11      0.000000000000
  12      0.000000000000
  13      0.000000000000
  14      0.000000000000
  15      0.000000000000
  16      0.000000000000
  17      0.000000000000
  18      0.000000000000
  19      0.000000000000
  20      0.000000000000
  21      0.000000000000
  22      0.000000000000
  23      0.000000000000
  24      0.000000000000
  25      0.000000000000
  26      0.000000000000
  27      0.000000000000
  28      0.000000000000
  29      0.000000000000
  30      0.000000000000
  31      0.000000000000
  32      0.000000000000
  33      0.000000000000
  34      0.000000000000
  35      0.000000000000
  36      0.000000000000
  37      0.000000000000
  38      0.000000000000
  39      0.000000000000
  40      0.000000000000
  41      0.000000000000
  42      0.000000000000
  43      0.000000000000
  44      0.000000000000
  45      0.000000000000
  46      0.000000000000
  47      0.000000000000
  48      0.000000000000
 Ene=   0.15138875300271E+01
 Spin= Alpha
 Occup=    0.000000
   1      0.000000000000
   2      0.000000000000
   3      0.000000000000
   4      0.000000000000
   5      0.000000000000
   6      0.000000000000
   7      0.000000000000
   8      0.000000000000
   9      0.000000000000
  10      0.000000000000
  11      0.000000000000
  12      0.000000000000
  13      0.000000000000
  14      0.000000000000
  15      0.000000000000
  16      0.000000000000
  17      0.000000000000
  18      0.000000000000
  19      0.000000000000
  20      0.000000000000
  21      0.000000000000
  22      0.000000000000
  23      0.000000000000
  24      0.000000000000
  25      0.000000000000
  26      0.000000000000
  27      0.000000000000
  28      0.000000000000
  29      0.000000000000
  30      0.000000000000
  31      0.000000000000
  32      0.000000000000
  33      0.000000000000
  34      0.000000000000
  35      0.000000000000
  36      0.000000000000
  37      0.000000000000
  38      0.000000000000
  39      0.000000000000
  40      0.000000000000
  41      0.000000000000
  42      0.000000000000
  43      0.000000000000
  44      0.000000000000
  45      0.000000000000
  46      0.000000000000
  47      0.000000000000
  48      0.000000000000
 Ene=   0.16132531604818E+01
 Spin= Alpha
 Occup=    0.000000
   1     -0.040566888643
   2      0.279003314598
   3      0.274958293247
   4      0.000000000000
   5     -0.000000000000
   6     -0.247081623693
   7      0.000000000000
   8      0.000000000000
   9      0.743155240069
  10     -0.321349409920
  11     -0.000000000000
  12      0.000000000000
  13     -0.061549230447
  14      0.000000000000
  15     -0.177194630213
  16     -0.120767368681
  17     -0.000000000000
  18      0.128363389116
  19     -0.386634182741
  20     -0.177194630213
  21     -0.120767368681
  22     -0.000000000000
  23     -0.128363389116
  24     -0.386634182741
  25     -0.040566888643
  26      0.279003314598
  27      0.274958293247
  28      0.000000000000
  29     -0.000000000000
  30      0.247081623693
  31     -0.000000000000
  32     -0.000000000000
  33     -0.743155240069
  34     -0.321349409920
  35      0.000000000000
  36     -0.000000000000
  37      0.061549230447
  38      0.000000000000
  39     -0.177194630213
  40     -0.120767368681
  41      0.128363389116
  42      0.000000000000
  43      0.386634182741
  44     -0.177194630213
  45     -0.120767368681
  46     -0.128363389116
  47      0.000000000000
  48      0.386634182741
 Ene=   0.16229243340507E+01
 Spin= Alpha
 Occup=    0.000000
   1      0.000000000000
   2      0.000000000000
   3      0.000000000000
   4      0.000000000000
   5      0.000000000000
   6      0.000000000000
   7      0.000000000000
   8      0.000000000000
   9      0.000000000000
  10      0.000000000000
  11      0.000000000000
  12      0.000000000000
  13      0.000000000000
  14      0.000000000000
  15      0.000000000000
  16      0.000000000000
  17      0.000000000000
  18      0.000000000000
  19      0.000000000000
  20      0.000000000000
  21      0.000000000000
  22      0.000000000000
  23      0.000000000000
  24      0.000000000000
  25      0.000000000000
  26      0.000000000000
  27      0.000000000000
  28      0.000000000000
  29      0.000000000000
  30      0.000000000000
  31      0.000000000000
  32      0.000000000000
  33      0.000000000000
  34      0.000000000000
  35      0.000000000000
  36      0.000000000000
  37      0.000000000000
  38      0.000000000000
  39      0.000000000000
  40      0.000000000000
  41      0.000000000000
  42      0.000000000000
  43      0.000000000000
  44      0.000000000000
  45      0.000000000000
  46      0.000000000000
  47      0.000000000000
  48      0.000000000000
 Ene=   0.16292229205147E+01
 Spin= Alpha
 Occup=    0.000000
   1      0.000000000000
   2     -0.000000000000
   3      0.000000000000
   4      0.031591615760
   5      0.004642691261
   6      0.000000000000
   7      0.576230707758
   8     -0.032242259547
   9     -0.000000000000
  10      0.000000000000
  11     -0.277369535152
  12     -0.004814389287
  13      0.000000000000
  14      0.000000000000
  15      0.010240616212
  16      0.009111989502
  17     -0.285332874603
  18      0.010598276540
  19     -0.006733746167
  20     -0.010240616212
  21     -0.009111989502
  22     -0.285332874603
  23      0.010598276540
  24      0.006733746167
  25      0.000000000000
  26     -0.000000000000
  27     -0.000000000000
  28      0.212344089024
  29      0.000690719102
  30     -0.000000000000
  31     -1.474673383811
  32      0.012598708461
  33      0.000000000000
  34      0.000000000000
  35      0.220197090441
  36      0.006064407645
  37     -0.000000000000
  38     -0.000000000000
  39      0.468377972711
  40      0.416757652247
  41      0.484736384706
  42     -0.006238518102
  43      0.307983261273
  44     -0.468377972711
  45     -0.416757652247
  46      0.484736384706
  47     -0.006238518102
  48     -0.307983261273
 Ene=   0.16292229205147E+01
 Spin= Alpha
 Occup=    0.000000
   1      0.000000000000
   2     -0.000000000000
   3     -0.000000000000
   4      0.000690719102
   5     -0.212344089024
   6      0.000000000000
   7      0.012598708461
   8      1.474673383811
   9      0.000000000000
  10      0.000000000000
  11     -0.006064407645
  12      0.220197090441
  13     -0.000000000000
  14     -0.000000000000
  15     -0.468377972711
  16     -0.416757652247
  17     -0.006238518102
  18     -0.484736384706
  19      0.307983261273
  20      0.468377972711
  21      0.416757652247
  22     -0.006238518102
  23     -0.484736384705
  24     -0.307983261273
  25     -0.000000000000
  26      0.000000000000
  27      0.000000000000
  28      0.004642691261
  29     -0.031591615760
  30     -0.000000000000
  31     -0.032242259547
  32     -0.576230707758
  33      0.000000000000
  34      0.000000000000
  35      0.004814389287
  36     -0.277369535152
  37     -0.000000000000
  38     -0.000000000000
  39      0.010240616212
  40      0.009111989502
  41      0.010598276540
  42      0.285332874603
  43      0.006733746167
  44     -0.010240616212
  45     -0.009111989502
  46      0.010598276540
  47      0.285332874603
  48     -0.006733746167
 Ene=   0.16423759354468E+01
 Spin= Alpha
 Occup=    0.000000
   1      0.000000000000
   2      0.000000000000
   3      0.000000000000
   4      0.000000000000
   5      0.000000000000
   6      0.000000000000
   7      0.000000000000
   8      0.000000000000
   9      0.000000000000
  10      0.000000000000
  11      0.000000000000
  12      0.000000000000
  13      0.000000000000
  14      0.000000000000
  15      0.000000000000
  16      0.000000000000
  17      0.000000000000
  18      0.000000000000
  19      0.000000000000
  20      0.000000000000
  21      0.000000000000
  22      0.000000000000
  23      0.000000000000
  24      0.000000000000
  25      0.000000000000
  26      0.000000000000
  27      0.000000000000
  28      0.000000000000
  29      0.000000000000
  30      0.000000000000
  31      0.000000000000
  32      0.000000000000
  33      0.000000000000
  34      0.000000000000
  35      0.000000000000
  36      0.000000000000
  37      0.000000000000
  38      0.000000000000
  39      0.000000000000
  40      0.000000000000
  41      0.000000000000
  42      0.000000000000
  43      0.000000000000
  44      0.000000000000
  45      0.000000000000
  46      0.000000000000
  47      0.000000000000
  48      0.000000000000
 Ene=   0.16423759354468E+01
 Spin= Alpha
 Occup=    0.000000
   1      0.000000000000
   2      0.000000000000
   3      0.000000000000
   4      0.000000000000
   5      0.000000000000
   6      0.000000000000
   7      0.000000000000
   8      0.000000000000
   9      0.000000000000
  10      0.000000000000
  11      0.000000000000
  12      0.000000000000
  13      0.000000000000
  14      0.000000000000
  15      0.000000000000
  16      0.000000000000
  17      0.000000000000
  18      0.000000000000
  19      0.000000000000
  20      0.000000000000
  21      0.000000000000
  22      0.000000000000
  23      0.000000000000
  24      0.000000000000
  25      0.000000000000
  26      0.000000000000
  27      0.000000000000
  28      0.000000000000
  29      0.000000000000
  30      0.000000000000
  31      0.000000000000
  32      0.000000000000
  33      0.000000000000
  34      0.000000000000
  35      0.000000000000
  36      0.000000000000
  37      0.000000000000
  38      0.000000000000
  39      0.000000000000
  40      0.000000000000
  41      0.000000000000
  42      0.000000000000
  43      0.000000000000
  44      0.000000000000
  45      0.000000000000
  46      0.000000000000
  47      0.000000000000
  48      0.000000000000
 Ene=   0.16493259957282E+01
 Spin= Alpha
 Occup=    0.000000
   1     -0.057529382918
   2      0.413412230980
   3      0.645131507758
   4      0.000000000000
   5     -0.000000000000
   6     -0.032988953838
   7      0.000000000000
   8      0.000000000000
   9     -1.156412713996
  10      0.047734093421
  11     -0.000000000000
  12      0.000000000000
  13      0.394386640806
  14      0.000000000000
  15      0.224302707412
  16      0.142218448866
  17      0.000000000000
  18      0.011780617794
  19      0.387411784895
  20      0.224302707412
  21      0.142218448866
  22      0.000000000000
  23     -0.011780617794
  24      0.387411784895
  25      0.057529382918
  26     -0.413412230980
  27     -0.645131507757
  28      0.000000000000
  29     -0.000000000000
  30     -0.032988953838
  31     -0.000000000000
  32     -0.000000000000
  33     -1.156412713996
  34     -0.047734093421
  35      0.000000000000
  36     -0.000000000000
  37      0.394386640806
  38      0.000000000000
  39     -0.224302707412
  40     -0.142218448866
  41     -0.011780617794
  42      0.000000000000
  43      0.387411784895
  44     -0.224302707412
  45     -0.142218448866
  46      0.011780617794
  47      0.000000000000
  48      0.387411784895
 Ene=   0.16824559104181E+01
 Spin= Alpha
 Occup=    0.000000
   1      0.000000000000
   2      0.000000000000
   3      0.000000000000
   4      0.000000000000
   5      0.000000000000
   6      0.000000000000
   7      0.000000000000
   8      0.000000000000
   9      0.000000000000
  10      0.000000000000
  11      0.000000000000
  12      0.000000000000
  13      0.000000000000
  14      0.000000000000
  15      0.000000000000
  16      0.000000000000
  17      0.000000000000
  18      0.000000000000
  19      0.000000000000
  20      0.000000000000
  21      0.000000000000
  22      0.000000000000
  23      0.000000000000
  24      0.000000000000
  25      0.000000000000
  26      0.000000000000
  27      0.000000000000
  28      0.000000000000
  29      0.000000000000
  30      0.000000000000
  31      0.000000000000
  32      0.000000000000
  33      0.000000000000
  34      0.000000000000
  35      0.000000000000
  36      0.000000000000
  37      0.000000000000
  38      0.000000000000
  39      0.000000000000
  40      0.000000000000
  41      0.000000000000
  42      0.000000000000
  43      0.000000000000
  44      0.000000000000
  45      0.000000000000
  46      0.000000000000
  47      0.000000000000
  48      0.000000000000
 Ene=   0.18334348207869E+01
 Spin= Alpha
 Occup=    0.000000
   1      0.000000000000
   2     -0.000000000000
   3     -0.000000000000
   4     -0.212967780693
   5      0.006121110245
   6     -0.000000000000
   7     -0.251941041386
   8      0.003710193635
   9     -0.000000000000
  10      0.000000000000
  11     -0.403955048377
  12     -0.010132451294
  13     -0.000000000000
  14     -0.000000000000
  15      0.002274514909
  16     -0.005872529238
  17      0.568219689890
  18      0.004187294921
  19      0.008848912198
  20     -0.002274514909
  21      0.005872529238
  22      0.568219689890
  23      0.004187294921
  24     -0.008848912198
  25     -0.000000000000
  26      0.000000000000
  27     -0.000000000000
  28      0.228730212126
  29     -0.005699287612
  30     -0.000000000000
  31      0.138640433370
  32     -0.006742261441
  33      0.000000000000
  34      0.000000000000
  35      0.378623753034
  36      0.010810348849
  37      0.000000000000
  38     -0.000000000000
  39      0.084992796525
  40     -0.219441376569
  41      0.156468486462
  42      0.015206278756
  43     -0.330661184488
  44     -0.084992796525
  45      0.219441376569
  46      0.156468486462
  47      0.015206278756
  48      0.330661184488
 Ene=   0.18334348207869E+01
 Spin= Alpha
 Occup=    0.000000
   1      0.000000000000
   2      0.000000000000
   3      0.000000000000
   4      0.005699287612
   5      0.228730212126
   6      0.000000000000
   7      0.006742261441
   8      0.138640433370
   9      0.000000000000
  10     -0.000000000000
  11      0.010810348849
  12     -0.378623753034
  13      0.000000000000
  14      0.000000000000
  15      0.084992796525
  16     -0.219441376569
  17     -0.015206278756
  18      0.156468486462
  19      0.330661184488
  20     -0.084992796525
  21      0.219441376569
  22     -0.015206278756
  23      0.156468486462
  24     -0.330661184488
  25     -0.000000000000
  26      0.000000000000
  27     -0.000000000000
  28     -0.006121110245
  29     -0.212967780693
  30      0.000000000000
  31     -0.003710193635
  32     -0.251941041386
  33      0.000000000000
  34     -0.000000000000