[Molden Format]
[Title]
generated by TRESC, real part1 of MOs of job twisted_C2H4
 
[Atoms] AU
 C   1   6    0.0000000000    0.0000000000    1.3668709329
 H   2   1    0.0000000000    1.7631351343    2.4609882652
 H   3   1    0.0000000000   -1.7631351343    2.4609882652
 C   4   6    0.0000000000    0.0000000000   -1.3668709329
 H   5   1    1.7631351343    0.0000000000   -2.4609882652
 H   6   1   -1.7631351343    0.0000000000   -2.4609882652
[GTO]
  1 0
 s  5 1.0
     1238.4016938000        0.0059599745
      186.2900499200        0.0422621111
       42.2511763500        0.1866575214
       11.6765579300        0.4675815865
        3.5930506500        0.4422897287
 s  1 1.0
        0.4024514700        1.0000000000
 s  1 1.0
        0.1309018300        1.0000000000
 p  3 1.0
        9.4680970600        0.0570294585
        2.0103545100        0.3130471495
        0.5477100500        0.7605135301
 p  1 1.0
        0.1526861400        1.0000000000
 d  1 1.0
        0.8000000000        1.0000000000
 
  2 0
 s  3 1.0
       13.0107010000        0.0391282527
        1.9622572000        0.2855840539
        0.4445379600        0.7689908602
 s  1 1.0
        0.1219496200        1.0000000000
 p  1 1.0
        0.8000000000        1.0000000000
 
  3 0
 s  3 1.0
       13.0107010000        0.0391282527
        1.9622572000        0.2855840539
        0.4445379600        0.7689908602
 s  1 1.0
        0.1219496200        1.0000000000
 p  1 1.0
        0.8000000000        1.0000000000
 
  4 0
 s  5 1.0
     1238.4016938000        0.0059599745
      186.2900499200        0.0422621111
       42.2511763500        0.1866575214
       11.6765579300        0.4675815865
        3.5930506500        0.4422897287
 s  1 1.0
        0.4024514700        1.0000000000
 s  1 1.0
        0.1309018300        1.0000000000
 p  3 1.0
        9.4680970600        0.0570294585
        2.0103545100        0.3130471495
        0.5477100500        0.7605135301
 p  1 1.0
        0.1526861400        1.0000000000
 d  1 1.0
        0.8000000000        1.0000000000
 
  5 0
 s  3 1.0
       13.0107010000        0.0391282527
        1.9622572000        0.2855840539
        0.4445379600        0.7689908602
 s  1 1.0
        0.1219496200        1.0000000000
 p  1 1.0
        0.8000000000        1.0000000000
 
  6 0
 s  3 1.0
       13.0107010000        0.0391282527
        1.9622572000        0.2855840539
        0.4445379600        0.7689908602
 s  1 1.0
        0.1219496200        1.0000000000
 p  1 1.0
        0.8000000000        1.0000000000
 
[5D]
[7F]
[9G]
[MO]
 Ene=  -0.10209964874656E+02
 Spin= Alpha
 Occup=    1.000000
   1     -0.698205480783
   2     -0.035732121928
   3      0.020752564181
   4     -0.000000000000
   5      0.000000000000
   6     -0.002979222994
   7      0.000000000000
   8      0.000000000000
   9      0.001251722954
  10      0.001015102578
  11     -0.000000000000
  12      0.000000000000
  13      0.001653726143
  14      0.000000000000
  15      0.003471665876
  16     -0.006342123329
  17     -0.000000000000
  18     -0.002181865670
  19     -0.001027861123
  20      0.003471665876
  21     -0.006342123329
  22      0.000000000000
  23      0.002181865670
  24     -0.001027861123
  25     -0.698205481273
  26     -0.035732121956
  27      0.020752564206
  28      0.000000000000
  29     -0.000000000000
  30      0.002979222993
  31     -0.000000000000
  32      0.000000000000
  33     -0.001251722951
  34      0.001015102576
  35      0.000000000000
  36     -0.000000000000
  37     -0.001653726145
  38     -0.000000000000
  39      0.003471665879
  40     -0.006342123332
  41     -0.002181865672
  42      0.000000000000
  43      0.001027861124
  44      0.003471665879
  45     -0.006342123332
  46      0.002181865672
  47     -0.000000000000
  48      0.001027861124
 Ene=  -0.10209949856014E+02
 Spin= Alpha
 Occup=    1.000000
   1      0.697383796690
   2      0.040501405539
   3     -0.034184358678
   4     -0.000000000000
   5     -0.000000000000
   6     -0.001141336247
   7      0.000000000000
   8      0.000000000000
   9      0.004207954911
  10      0.002320392589
  11     -0.000000000000
  12     -0.000000000000
  13     -0.001758105945
  14     -0.000000000000
  15     -0.003461389797
  16      0.005159295545
  17     -0.000000000000
  18      0.002608767545
  19      0.001564885840
  20     -0.003461389797
  21      0.005159295545
  22     -0.000000000000
  23     -0.002608767545
  24      0.001564885840
  25     -0.697383796200
  26     -0.040501405514
  27      0.034184358664
  28      0.000000000000
  29      0.000000000000
  30     -0.001141336249
  31     -0.000000000000
  32     -0.000000000000
  33      0.004207954912
  34     -0.002320392590
  35      0.000000000000
  36      0.000000000000
  37     -0.001758105943
  38     -0.000000000000
  39      0.003461389795
  40     -0.005159295540
  41     -0.002608767544
  42     -0.000000000000
  43      0.001564885840
  44      0.003461389795
  45     -0.005159295540
  46      0.002608767544
  47     -0.000000000000
  48      0.001564885840
 Ene=  -0.10196419296590E+02
 Spin= Alpha
 Occup=    0.000000
   1      0.000000000000
   2      0.000000000000
   3      0.000000000000
   4      0.000000000000
   5      0.000000000000
   6      0.000000000000
   7      0.000000000000
   8      0.000000000000
   9      0.000000000000
  10      0.000000000000
  11      0.000000000000
  12      0.000000000000
  13      0.000000000000
  14      0.000000000000
  15      0.000000000000
  16      0.000000000000
  17      0.000000000000
  18      0.000000000000
  19      0.000000000000
  20      0.000000000000
  21      0.000000000000
  22      0.000000000000
  23      0.000000000000
  24      0.000000000000
  25      0.000000000000
  26      0.000000000000
  27      0.000000000000
  28      0.000000000000
  29      0.000000000000
  30      0.000000000000
  31      0.000000000000
  32      0.000000000000
  33      0.000000000000
  34      0.000000000000
  35      0.000000000000
  36      0.000000000000
  37      0.000000000000
  38      0.000000000000
  39      0.000000000000
  40      0.000000000000
  41      0.000000000000
  42      0.000000000000
  43      0.000000000000
  44      0.000000000000
  45      0.000000000000
  46      0.000000000000
  47      0.000000000000
  48      0.000000000000
 Ene=  -0.10196375413741E+02
 Spin= Alpha
 Occup=   -0.000000
   1      0.000000000000
   2      0.000000000000
   3      0.000000000000
   4      0.000000000000
   5      0.000000000000
   6      0.000000000000
   7      0.000000000000
   8      0.000000000000
   9      0.000000000000
  10      0.000000000000
  11      0.000000000000
  12      0.000000000000
  13      0.000000000000
  14      0.000000000000
  15      0.000000000000
  16      0.000000000000
  17      0.000000000000
  18      0.000000000000
  19      0.000000000000
  20      0.000000000000
  21      0.000000000000
  22      0.000000000000
  23      0.000000000000
  24      0.000000000000
  25      0.000000000000
  26      0.000000000000
  27      0.000000000000
  28      0.000000000000
  29      0.000000000000
  30      0.000000000000
  31      0.000000000000
  32      0.000000000000
  33      0.000000000000
  34      0.000000000000
  35      0.000000000000
  36      0.000000000000
  37      0.000000000000
  38      0.000000000000
  39      0.000000000000
  40      0.000000000000
  41      0.000000000000
  42      0.000000000000
  43      0.000000000000
  44      0.000000000000
  45      0.000000000000
  46      0.000000000000
  47      0.000000000000
  48      0.000000000000
 Ene=  -0.75521883453646E+00
 Spin= Alpha
 Occup=    1.000000
   1      0.199791691469
   2     -0.395562829583
   3     -0.130471480601
   4      0.000000000000
   5     -0.000000000000
   6      0.090852638080
   7     -0.000000000000
   8      0.000000000000
   9      0.018640992872
  10     -0.008074481790
  11      0.000000000000
  12      0.000000000000
  13     -0.003358182834
  14     -0.000000000000
  15     -0.102359279746
  16     -0.014445068427
  17      0.000000000000
  18      0.010952326291
  19      0.007643400466
  20     -0.102359279746
  21     -0.014445068427
  22      0.000000000000
  23     -0.010952326291
  24      0.007643400466
  25      0.199791691469
  26     -0.395562829583
  27     -0.130471480601
  28     -0.000000000000
  29      0.000000000000
  30     -0.090852638080
  31      0.000000000000
  32     -0.000000000000
  33     -0.018640992871
  34     -0.008074481790
  35      0.000000000000
  36     -0.000000000000
  37      0.003358182834
  38      0.000000000000
  39     -0.102359279746
  40     -0.014445068427
  41      0.010952326291
  42      0.000000000000
  43     -0.007643400466
  44     -0.102359279746
  45     -0.014445068427
  46     -0.010952326291
  47      0.000000000000
  48     -0.007643400466
 Ene=  -0.70919685560436E+00
 Spin= Alpha
 Occup=    0.000000
   1      0.000000000000
   2      0.000000000000
   3      0.000000000000
   4      0.000000000000
   5      0.000000000000
   6      0.000000000000
   7      0.000000000000
   8      0.000000000000
   9      0.000000000000
  10      0.000000000000
  11      0.000000000000
  12      0.000000000000
  13      0.000000000000
  14      0.000000000000
  15      0.000000000000
  16      0.000000000000
  17      0.000000000000
  18      0.000000000000
  19      0.000000000000
  20      0.000000000000
  21      0.000000000000
  22      0.000000000000
  23      0.000000000000
  24      0.000000000000
  25      0.000000000000
  26      0.000000000000
  27      0.000000000000
  28      0.000000000000
  29      0.000000000000
  30      0.000000000000
  31      0.000000000000
  32      0.000000000000
  33      0.000000000000
  34      0.000000000000
  35      0.000000000000
  36      0.000000000000
  37      0.000000000000
  38      0.000000000000
  39      0.000000000000
  40      0.000000000000
  41      0.000000000000
  42      0.000000000000
  43      0.000000000000
  44      0.000000000000
  45      0.000000000000
  46      0.000000000000
  47      0.000000000000
  48      0.000000000000
 Ene=  -0.60011793205266E+00
 Spin= Alpha
 Occup=    1.000000
   1      0.163580176149
   2     -0.335638020670
   3     -0.174812137000
   4      0.000000000000
   5     -0.000000000000
   6     -0.151938420210
   7      0.000000000000
   8      0.000000000000
   9     -0.038870801042
  10      0.010215114442
  11     -0.000000000000
  12      0.000000000000
  13      0.003168149983
  14     -0.000000000000
  15     -0.172659835573
  16     -0.038194878680
  17     -0.000000000000
  18      0.012888486367
  19      0.004307196027
  20     -0.172659835573
  21     -0.038194878680
  22     -0.000000000000
  23     -0.012888486367
  24      0.004307196027
  25     -0.163580176149
  26      0.335638020670
  27      0.174812137000
  28      0.000000000000
  29     -0.000000000000
  30     -0.151938420210
  31     -0.000000000000
  32     -0.000000000000
  33     -0.038870801042
  34     -0.010215114442
  35     -0.000000000000
  36     -0.000000000000
  37      0.003168149983
  38      0.000000000000
  39      0.172659835573
  40      0.038194878680
  41     -0.012888486367
  42      0.000000000000
  43      0.004307196027
  44      0.172659835573
  45      0.038194878680
  46      0.012888486367
  47      0.000000000000
  48      0.004307196027
 Ene=  -0.56144218678536E+00
 Spin= Alpha
 Occup=   -0.000000
   1      0.000000000000
   2      0.000000000000
   3      0.000000000000
   4      0.000000000000
   5      0.000000000000
   6      0.000000000000
   7      0.000000000000
   8      0.000000000000
   9      0.000000000000
  10      0.000000000000
  11      0.000000000000
  12      0.000000000000
  13      0.000000000000
  14      0.000000000000
  15      0.000000000000
  16      0.000000000000
  17      0.000000000000
  18      0.000000000000
  19      0.000000000000
  20      0.000000000000
  21      0.000000000000
  22      0.000000000000
  23      0.000000000000
  24      0.000000000000
  25      0.000000000000
  26      0.000000000000
  27      0.000000000000
  28      0.000000000000
  29      0.000000000000
  30      0.000000000000
  31      0.000000000000
  32      0.000000000000
  33      0.000000000000
  34      0.000000000000
  35      0.000000000000
  36      0.000000000000
  37      0.000000000000
  38      0.000000000000
  39      0.000000000000
  40      0.000000000000
  41      0.000000000000
  42      0.000000000000
  43      0.000000000000
  44      0.000000000000
  45      0.000000000000
  46      0.000000000000
  47      0.000000000000
  48      0.000000000000
 Ene=  -0.43884346244811E+00
 Spin= Alpha
 Occup=    1.000000
   1      0.000000000000
   2     -0.000000000000
   3     -0.000000000000
   4     -0.173899918093
   5      0.005249550114
   6     -0.000000000000
   7     -0.086449741936
   8      0.002032715179
   9      0.000000000000
  10     -0.000000000000
  11      0.013727748629
  12      0.000184309327
  13      0.000000000000
  14     -0.000000000000
  15      0.003286616292
  16      0.001378256078
  17     -0.003494053044
  18     -0.000036230126
  19     -0.000096619625
  20     -0.003286616292
  21     -0.001378256078
  22     -0.003494053044
  23     -0.000036230126
  24      0.000096619625
  25     -0.000000000000
  26      0.000000000000
  27      0.000000000000
  28     -0.443093365041
  29      0.002060279857
  30     -0.000000000000
  31     -0.171573294697
  32      0.001024213605
  33      0.000000000000
  34      0.000000000000
  35      0.015556807357
  36      0.000162639547
  37      0.000000000000
  38      0.000000000000
  39     -0.277410033452
  40     -0.116333040015
  41      0.003058038915
  42      0.000041395805
  43     -0.008155273105
  44      0.277410033452
  45      0.116333040015
  46      0.003058038915
  47      0.000041395805
  48      0.008155273105
 Ene=  -0.43884346244811E+00
 Spin= Alpha
 Occup=    1.000000
   1     -0.000000000000
   2      0.000000000000
   3     -0.000000000000
   4     -0.002060279857
   5     -0.443093365041
   6     -0.000000000000
   7     -0.001024213605
   8     -0.171573294697
   9      0.000000000000
  10     -0.000000000000
  11      0.000162639547
  12     -0.015556807357
  13      0.000000000000
  14      0.000000000000
  15     -0.277410033452
  16     -0.116333040015
  17     -0.000041395805
  18      0.003058038915
  19      0.008155273105
  20      0.277410033452
  21      0.116333040015
  22     -0.000041395805
  23      0.003058038915
  24     -0.008155273105
  25     -0.000000000000
  26     -0.000000000000
  27      0.000000000000
  28     -0.005249550114
  29     -0.173899918093
  30      0.000000000000
  31     -0.002032715179
  32     -0.086449741936
  33      0.000000000000
  34      0.000000000000
  35      0.000184309327
  36     -0.013727748629
  37     -0.000000000000
  38     -0.000000000000
  39     -0.003286616292
  40     -0.001378256078
  41      0.000036230126
  42     -0.003494053044
  43     -0.000096619625
  44      0.003286616292
  45      0.001378256078
  46      0.000036230126
  47     -0.003494053044
  48      0.000096619625
 Ene=  -0.42241674406212E+00
 Spin= Alpha
 Occup=    1.000000
   1     -0.013568475171
   2      0.037587897866
   3     -0.003786367542
   4      0.000000000000
   5      0.000000000000
   6     -0.412983426873
   7     -0.000000000000
   8      0.000000000000
   9     -0.152400963791
  10      0.012110395540
  11      0.000000000000
  12      0.000000000000
  13      0.008777961579
  14      0.000000000000
  15     -0.153822795414
  16     -0.067290952600
  17      0.000000000000
  18      0.007495405270
  19     -0.004303845252
  20     -0.153822795414
  21     -0.067290952600
  22      0.000000000000
  23     -0.007495405270
  24     -0.004303845252
  25     -0.013568475171
  26      0.037587897866
  27     -0.003786367542
  28     -0.000000000000
  29      0.000000000000
  30      0.412983426873
  31     -0.000000000000
  32      0.000000000000
  33      0.152400963791
  34      0.012110395540
  35      0.000000000000
  36      0.000000000000
  37     -0.008777961579
  38     -0.000000000000
  39     -0.153822795414
  40     -0.067290952600
  41      0.007495405270
  42      0.000000000000
  43      0.004303845252
  44     -0.153822795414
  45     -0.067290952600
  46     -0.007495405270
  47      0.000000000000
  48      0.004303845252
 Ene=  -0.41411304528082E+00
 Spin= Alpha
 Occup=   -0.000000
   1      0.000000000000
   2      0.000000000000
   3      0.000000000000
   4      0.000000000000
   5      0.000000000000
   6      0.000000000000
   7      0.000000000000
   8      0.000000000000
   9      0.000000000000
  10      0.000000000000
  11      0.000000000000
  12      0.000000000000
  13      0.000000000000
  14      0.000000000000
  15      0.000000000000
  16      0.000000000000
  17      0.000000000000
  18      0.000000000000
  19      0.000000000000
  20      0.000000000000
  21      0.000000000000
  22      0.000000000000
  23      0.000000000000
  24      0.000000000000
  25      0.000000000000
  26      0.000000000000
  27      0.000000000000
  28      0.000000000000
  29      0.000000000000
  30      0.000000000000
  31      0.000000000000
  32      0.000000000000
  33      0.000000000000
  34      0.000000000000
  35      0.000000000000
  36      0.000000000000
  37      0.000000000000
  38      0.000000000000
  39      0.000000000000
  40      0.000000000000
  41      0.000000000000
  42      0.000000000000
  43      0.000000000000
  44      0.000000000000
  45      0.000000000000
  46      0.000000000000
  47      0.000000000000
  48      0.000000000000
 Ene=  -0.41411304528082E+00
 Spin= Alpha
 Occup=    0.000000
   1      0.000000000000
   2      0.000000000000
   3      0.000000000000
   4      0.000000000000
   5      0.000000000000
   6      0.000000000000
   7      0.000000000000
   8      0.000000000000
   9      0.000000000000
  10      0.000000000000
  11      0.000000000000
  12      0.000000000000
  13      0.000000000000
  14      0.000000000000
  15      0.000000000000
  16      0.000000000000
  17      0.000000000000
  18      0.000000000000
  19      0.000000000000
  20      0.000000000000
  21      0.000000000000
  22      0.000000000000
  23      0.000000000000
  24      0.000000000000
  25      0.000000000000
  26      0.000000000000
  27      0.000000000000
  28      0.000000000000
  29      0.000000000000
  30      0.000000000000
  31      0.000000000000
  32      0.000000000000
  33      0.000000000000
  34      0.000000000000
  35      0.000000000000
  36      0.000000000000
  37      0.000000000000
  38      0.000000000000
  39      0.000000000000
  40      0.000000000000
  41      0.000000000000
  42      0.000000000000
  43      0.000000000000
  44      0.000000000000
  45      0.000000000000
  46      0.000000000000
  47      0.000000000000
  48      0.000000000000
 Ene=  -0.40375102902751E+00
 Spin= Alpha
 Occup=    0.000000
   1      0.000000000000
   2      0.000000000000
   3      0.000000000000
   4      0.000000000000
   5      0.000000000000
   6      0.000000000000
   7      0.000000000000
   8      0.000000000000
   9      0.000000000000
  10      0.000000000000
  11      0.000000000000
  12      0.000000000000
  13      0.000000000000
  14      0.000000000000
  15      0.000000000000
  16      0.000000000000
  17      0.000000000000
  18      0.000000000000
  19      0.000000000000
  20      0.000000000000
  21      0.000000000000
  22      0.000000000000
  23      0.000000000000
  24      0.000000000000
  25      0.000000000000
  26      0.000000000000
  27      0.000000000000
  28      0.000000000000
  29      0.000000000000
  30      0.000000000000
  31      0.000000000000
  32      0.000000000000
  33      0.000000000000
  34      0.000000000000
  35      0.000000000000
  36      0.000000000000
  37      0.000000000000
  38      0.000000000000
  39      0.000000000000
  40      0.000000000000
  41      0.000000000000
  42      0.000000000000
  43      0.000000000000
  44      0.000000000000
  45      0.000000000000
  46      0.000000000000
  47      0.000000000000
  48      0.000000000000
 Ene=  -0.21695336146855E+00
 Spin= Alpha
 Occup=    1.000000
   1     -0.000000000000
   2     -0.000000000000
   3     -0.000000000000
   4     -0.596758783809
   5     -0.007136880163
   6      0.000000000000
   7     -0.514248783689
   8     -0.004836374241
   9      0.000000000000
  10     -0.000000000000
  11     -0.002047833021
  12     -0.002539564374
  13      0.000000000000
  14     -0.000000000000
  15     -0.010977764857
  16     -0.009654541733
  17     -0.018543604378
  18     -0.000012572664
  19     -0.000151990152
  20      0.010977764857
  21      0.009654541733
  22     -0.018543604378
  23     -0.000012572664
  24      0.000151990152
  25      0.000000000000
  26     -0.000000000000
  27     -0.000000000000
  28      0.103173263397
  29      0.041280035021
  30      0.000000000000
  31      0.069916336274
  32      0.035572509993
  33      0.000000000000
  34      0.000000000000
  35     -0.036712840642
  36     -0.000141656262
  37     -0.000000000000
  38     -0.000000000000
  39      0.158698450756
  40      0.139569469358
  41      0.000181754870
  42      0.001282730408
  43     -0.002197223377
  44     -0.158698450756
  45     -0.139569469358
  46      0.000181754870
  47      0.001282730408
  48      0.002197223377
 Ene=  -0.21695336146855E+00
 Spin= Alpha
 Occup=    1.000000
   1      0.000000000000
   2     -0.000000000000
   3      0.000000000000
   4     -0.041280035021
   5      0.103173263397
   6     -0.000000000000
   7     -0.035572509993
   8      0.069916336274
   9     -0.000000000000
  10      0.000000000000
  11     -0.000141656262
  12      0.036712840642
  13     -0.000000000000
  14     -0.000000000000
  15      0.158698450756
  16      0.139569469358
  17     -0.001282730408
  18      0.000181754870
  19      0.002197223377
  20     -0.158698450756
  21     -0.139569469358
  22     -0.001282730408
  23      0.000181754870
  24     -0.002197223377
  25     -0.000000000000
  26      0.000000000000
  27     -0.000000000000
  28      0.007136880163
  29     -0.596758783809
  30     -0.000000000000
  31      0.004836374241
  32     -0.514248783689
  33     -0.000000000000
  34     -0.000000000000
  35     -0.002539564374
  36      0.002047833021
  37     -0.000000000000
  38     -0.000000000000
  39      0.010977764857
  40      0.009654541733
  41      0.000012572664
  42     -0.018543604378
  43     -0.000151990152
  44     -0.010977764857
  45     -0.009654541733
  46      0.000012572664
  47     -0.018543604378
  48      0.000151990152
 Ene=  -0.54344433323058E-01
 Spin= Alpha
 Occup=    0.000000
   1      0.000000000000
   2      0.000000000000
   3      0.000000000000
   4      0.000000000000
   5      0.000000000000
   6      0.000000000000
   7      0.000000000000
   8      0.000000000000
   9      0.000000000000
  10      0.000000000000
  11      0.000000000000
  12      0.000000000000
  13      0.000000000000
  14      0.000000000000
  15      0.000000000000
  16      0.000000000000
  17      0.000000000000
  18      0.000000000000
  19      0.000000000000
  20      0.000000000000
  21      0.000000000000
  22      0.000000000000
  23      0.000000000000
  24      0.000000000000
  25      0.000000000000
  26      0.000000000000
  27      0.000000000000
  28      0.000000000000
  29      0.000000000000
  30      0.000000000000
  31      0.000000000000
  32      0.000000000000
  33      0.000000000000
  34      0.000000000000
  35      0.000000000000
  36      0.000000000000
  37      0.000000000000
  38      0.000000000000
  39      0.000000000000
  40      0.000000000000
  41      0.000000000000
  42      0.000000000000
  43      0.000000000000
  44      0.000000000000
  45      0.000000000000
  46      0.000000000000
  47      0.000000000000
  48      0.000000000000
 Ene=  -0.54344433323056E-01
 Spin= Alpha
 Occup=    0.000000
   1      0.000000000000
   2      0.000000000000
   3      0.000000000000
   4      0.000000000000
   5      0.000000000000
   6      0.000000000000
   7      0.000000000000
   8      0.000000000000
   9      0.000000000000
  10      0.000000000000
  11      0.000000000000
  12      0.000000000000
  13      0.000000000000
  14      0.000000000000
  15      0.000000000000
  16      0.000000000000
  17      0.000000000000
  18      0.000000000000
  19      0.000000000000
  20      0.000000000000
  21      0.000000000000
  22      0.000000000000
  23      0.000000000000
  24      0.000000000000
  25      0.000000000000
  26      0.000000000000
  27      0.000000000000
  28      0.000000000000
  29      0.000000000000
  30      0.000000000000
  31      0.000000000000
  32      0.000000000000
  33      0.000000000000
  34      0.000000000000
  35      0.000000000000
  36      0.000000000000
  37      0.000000000000
  38      0.000000000000
  39      0.000000000000
  40      0.000000000000
  41      0.000000000000
  42      0.000000000000
  43      0.000000000000
  44      0.000000000000
  45      0.000000000000
  46      0.000000000000
  47      0.000000000000
  48      0.000000000000
 Ene=   0.85892725727352E-01
 Spin= Alpha
 Occup=    0.000000
   1      0.114206870284
   2     -0.196579421422
   3     -1.959332643997
   4     -0.000000000000
   5      0.000000000000
   6     -0.055020597247
   7     -0.000000000000
   8      0.000000000000
   9     -0.110298738918
  10      0.009345741081
  11     -0.000000000000
  12      0.000000000000
  13     -0.015768676595
  14     -0.000000000000
  15      0.077399385875
  16      1.044176492988
  17     -0.000000000000
  18      0.007018830395
  19      0.003456766534
  20      0.077399385875
  21      1.044176492989
  22     -0.000000000000
  23     -0.007018830395
  24      0.003456766534
  25     -0.114206870284
  26      0.196579421421
  27      1.959332643990
  28      0.000000000000
  29     -0.000000000000
  30     -0.055020597247
  31      0.000000000000
  32     -0.000000000000
  33     -0.110298738916
  34     -0.009345741081
  35     -0.000000000000
  36      0.000000000000
  37     -0.015768676595
  38     -0.000000000000
  39     -0.077399385875
  40     -1.044176492984
  41     -0.007018830395
  42     -0.000000000000
  43      0.003456766534
  44     -0.077399385875
  45     -1.044176492984
  46      0.007018830395
  47      0.000000000000
  48      0.003456766534
 Ene=   0.90431086457589E-01
 Spin= Alpha
 Occup=    0.000000
   1      0.092668603241
   2     -0.214231051619
   3     -1.441188714482
   4      0.000000000000
   5      0.000000000000
   6     -0.166707304945
   7      0.000000000000
   8      0.000000000000
   9     -0.508184047549
  10     -0.004731202129
  11      0.000000000000
  12      0.000000000000
  13     -0.000757447113
  14     -0.000000000000
  15      0.021935176627
  16      1.083709880066
  17      0.000000000000
  18      0.004748404943
  19     -0.001001184048
  20      0.021935176627
  21      1.083709880067
  22      0.000000000000
  23     -0.004748404943
  24     -0.001001184048
  25      0.092668603242
  26     -0.214231051621
  27     -1.441188714489
  28     -0.000000000000
  29     -0.000000000000
  30      0.166707304946
  31     -0.000000000000
  32     -0.000000000000
  33      0.508184047551
  34     -0.004731202129
  35      0.000000000000
  36      0.000000000000
  37      0.000757447113
  38     -0.000000000000
  39      0.021935176628
  40      1.083709880071
  41      0.004748404943
  42      0.000000000000
  43      0.001001184048
  44      0.021935176628
  45      1.083709880071
  46     -0.004748404943
  47     -0.000000000000
  48      0.001001184048
 Ene=   0.99153316896203E-01
 Spin= Alpha
 Occup=    0.000000
   1      0.000000000000
   2      0.000000000000
   3      0.000000000000
   4      0.000000000000
   5      0.000000000000
   6      0.000000000000
   7      0.000000000000
   8      0.000000000000
   9      0.000000000000
  10      0.000000000000
  11      0.000000000000
  12      0.000000000000
  13      0.000000000000
  14      0.000000000000
  15      0.000000000000
  16      0.000000000000
  17      0.000000000000
  18      0.000000000000
  19      0.000000000000
  20      0.000000000000
  21      0.000000000000
  22      0.000000000000
  23      0.000000000000
  24      0.000000000000
  25      0.000000000000
  26      0.000000000000
  27      0.000000000000
  28      0.000000000000
  29      0.000000000000
  30      0.000000000000
  31      0.000000000000
  32      0.000000000000
  33      0.000000000000
  34      0.000000000000
  35      0.000000000000
  36      0.000000000000
  37      0.000000000000
  38      0.000000000000
  39      0.000000000000
  40      0.000000000000
  41      0.000000000000
  42      0.000000000000
  43      0.000000000000
  44      0.000000000000
  45      0.000000000000
  46      0.000000000000
  47      0.000000000000
  48      0.000000000000
 Ene=   0.10304312880920E+00
 Spin= Alpha
 Occup=    0.000000
   1      0.000000000000
   2      0.000000000000
   3      0.000000000000
   4      0.000000000000
   5      0.000000000000
   6      0.000000000000
   7      0.000000000000
   8      0.000000000000
   9      0.000000000000
  10      0.000000000000
  11      0.000000000000
  12      0.000000000000
  13      0.000000000000
  14      0.000000000000
  15      0.000000000000
  16      0.000000000000
  17      0.000000000000
  18      0.000000000000
  19      0.000000000000
  20      0.000000000000
  21      0.000000000000
  22      0.000000000000
  23      0.000000000000
  24      0.000000000000
  25      0.000000000000
  26      0.000000000000
  27      0.000000000000
  28      0.000000000000
  29      0.000000000000
  30      0.000000000000
  31      0.000000000000
  32      0.000000000000
  33      0.000000000000
  34      0.000000000000