[Molden Format]
[Title]
generated by TRESC, imaginary part1 of MOs of job SCN
 
[Atoms] AU
 S   1  16  -17.2278192557   -6.3208121784    0.0000000000
 C   2   6  -20.3490796710   -6.3208121784    0.0000000000
 N   3   7  -22.5353603590   -6.3208121784    0.0000000000
[GTO]
  1 0
 s  5 1.0
    10081.3659290000        0.0067330718
     1468.8676987000        0.0423201277
      327.2465016600        0.1866835343
       90.5285201140        0.4849802687
       27.5058308280        0.4517376429
 s  3 1.0
       46.3853988360       -0.0950589434
        5.0228188449        0.5843701906
        2.0306206045        0.5413909427
 s  1 1.0
        0.3606627882        1.0000000000
 s  1 1.0
        0.1371410729        1.0000000000
 p  5 1.0
      604.8788900300        0.0002353489
      140.0897861900        0.0017386166
       44.4994657800        0.0077865988
       16.4748871580        0.0220140918
        6.5229645048        0.0378945448
 p  5 1.0
      270.9504306400        0.0092081513
       62.5377853170        0.0653131413
       19.3546142200        0.2445470601
        6.7163477485        0.4820783852
        2.4098646724        0.3917477785
 p  1 1.0
        0.6191509478        1.0000000000
 p  1 1.0
        0.1701457548        1.0000000000
 d  1 1.0
        0.5500000000        1.0000000000
 
  2 0
 s  5 1.0
     1231.7975026000        0.0058423196
      185.5974766200        0.0415113222
       42.0875016200        0.1832849990
       11.6300369400        0.4683526005
        3.5840894779        0.4430601820
 s  1 1.0
        0.4029351893        1.0000000000
 s  1 1.0
        0.1309419451        1.0000000000
 p  3 1.0
        9.4821246358        0.0381720490
        2.0121097169        0.2099973699
        0.5481253660        0.5104097902
 p  1 1.0
        0.1527756940        1.0000000000
 d  1 1.0
        0.8000000000        1.0000000000
 
  3 0
 s  5 1.0
     1706.0150550000        0.0058639453
      255.9938356800        0.0413450288
       58.1565771970        0.1820914202
       16.1430707430        0.4678591214
        4.9963209539        0.4434151324
 s  1 1.0
        0.5882550288        1.0000000000
 s  1 1.0
        0.1877013255        1.0000000000
 p  3 1.0
       13.5897862110        0.0400190920
        2.9274822154        0.2175789499
        0.7994670210        0.5117738303
 p  1 1.0
        0.2195247995        1.0000000000
 d  1 1.0
        1.0000000000        1.0000000000
 
[5D]
[7F]
[9G]
[MO]
 Ene=  -0.89343103019322E+02
 Spin= Alpha
 Occup=    0.999994
   1     -0.000000001104
   2     -0.000000000025
   3      0.000000000011
   4     -0.000000000004
   5     -0.000000000011
   6      0.000019981734
   7     -0.000000066313
   8      0.000000000001
   9     -0.000000628529
  10      0.000000003701
  11     -0.000000000001
  12      0.000000092153
  13     -0.000000000856
  14     -0.000000000000
  15     -0.000000052224
  16      0.000000002209
  17     -0.000000000000
  18      0.000000015022
  19      0.000000000000
  20      0.000000000000
  21      0.000000032715
  22      0.000000000000
  23      0.000000000000
  24      0.000000000005
  25     -0.000000000001
  26      0.000000000276
  27     -0.000000001887
  28     -0.000000000006
  29     -0.000000000111
  30     -0.000000005079
  31      0.000000000001
  32     -0.000000001758
  33     -0.000000000000
  34     -0.000000000001
  35     -0.000000035583
  36     -0.000000000000
  37      0.000000000002
  38     -0.000000000008
  39      0.000000000001
  40     -0.000000005332
  41     -0.000000000060
  42     -0.000000000003
  43     -0.000000000015
  44      0.000000002878
  45     -0.000000000000
  46     -0.000000002922
  47     -0.000000000000
  48      0.000000000000
  49     -0.000000008056
 Ene=  -0.89338119237658E+02
 Spin= Alpha
 Occup=    0.000006
   1      0.000000000006
   2      0.000000000000
   3     -0.000000000000
   4      0.000000000000
   5      0.000000000000
   6      0.000000054940
   7      0.000006062950
   8     -0.000000000000
   9     -0.000000002022
  10     -0.000000320680
  11      0.000000000000
  12     -0.000000000134
  13      0.000000057885
  14      0.000000000000
  15      0.000000001006
  16     -0.000000018696
  17      0.000000000000
  18     -0.000000006472
  19     -0.000000000000
  20     -0.000000000000
  21      0.000000009889
  22     -0.000000000000
  23     -0.000000000000
  24     -0.000000000000
  25      0.000000000000
  26     -0.000000000762
  27      0.000000004979
  28      0.000000000000
  29     -0.000000002561
  30      0.000000003145
  31     -0.000000000000
  32     -0.000000017135
  33      0.000000000000
  34      0.000000000000
  35     -0.000000000954
  36      0.000000000000
  37     -0.000000000000
  38      0.000000000000
  39     -0.000000000000
  40      0.000000000245
  41     -0.000000006167
  42      0.000000000000
  43      0.000000001556
  44     -0.000000002532
  45      0.000000000000
  46     -0.000000001032
  47      0.000000000000
  48     -0.000000000000
  49     -0.000000001475
 Ene=  -0.14448947910949E+02
 Spin= Alpha
 Occup=    1.000000
   1      0.000000000000
   2     -0.000000000000
   3      0.000000000000
   4      0.000000000000
   5     -0.000000000000
   6     -0.000006119423
   7     -0.000000026856
   8      0.000000000000
   9      0.000000066552
  10      0.000000002167
  11     -0.000000000000
  12     -0.000000032505
  13      0.000000001803
  14     -0.000000000000
  15      0.000000078109
  16      0.000000007267
  17     -0.000000000000
  18      0.000000010300
  19      0.000000000000
  20      0.000000000000
  21     -0.000000006345
  22      0.000000000000
  23      0.000000000000
  24      0.000000000000
  25      0.000000000000
  26      0.000000122473
  27     -0.000000017288
  28     -0.000000000000
  29     -0.000000184009
  30     -0.000000017104
  31      0.000000000000
  32     -0.000000014186
  33     -0.000000000000
  34     -0.000000000000
  35      0.000000239098
  36      0.000000000004
  37      0.000000000000
  38     -0.000000000000
  39      0.000000000000
  40     -0.000000585579
  41      0.000000032834
  42     -0.000000000000
  43      0.000000239401
  44      0.000000003155
  45     -0.000000000000
  46     -0.000000111915
  47      0.000000000000
  48      0.000000000000
  49     -0.000000674998
 Ene=  -0.14441480566256E+02
 Spin= Alpha
 Occup=    0.000000
   1     -0.000000000000
   2      0.000000000000
   3     -0.000000000000
   4     -0.000000000000
   5     -0.000000000000
   6      0.000000016306
   7      0.000005604724
   8     -0.000000000000
   9     -0.000000000785
  10     -0.000000170903
  11      0.000000000000
  12     -0.000000001394
  13      0.000000040003
  14      0.000000000000
  15     -0.000000004428
  16     -0.000000045698
  17      0.000000000000
  18      0.000000020599
  19      0.000000000000
  20     -0.000000000000
  21     -0.000000004773
  22     -0.000000000000
  23     -0.000000000000
  24     -0.000000000000
  25     -0.000000000000
  26      0.000000008564
  27     -0.000000172705
  28      0.000000000000
  29      0.000000008907
  30      0.000000102577
  31     -0.000000000000
  32     -0.000000121329
  33      0.000000000000
  34      0.000000000000
  35      0.000000006949
  36     -0.000000000000
  37     -0.000000000000
  38      0.000000000000
  39     -0.000000000000
  40     -0.000000005752
  41      0.000000373237
  42      0.000000000000
  43     -0.000000003797
  44     -0.000000129993
  45      0.000000000000
  46      0.000000267558
  47     -0.000000000000
  48     -0.000000000000
  49      0.000000062264
 Ene=  -0.10332960717504E+02
 Spin= Alpha
 Occup=    0.000000
   1     -0.000000000000
   2     -0.000000000000
   3      0.000000000000
   4     -0.000000000000
   5     -0.000000000000
   6     -0.000000012114
   7      0.000017720081
   8      0.000000000000
   9      0.000000002504
  10     -0.000000149610
  11     -0.000000000000
  12      0.000000002165
  13      0.000000110521
  14      0.000000000000
  15      0.000000002891
  16     -0.000000040243
  17     -0.000000000000
  18      0.000000045797
  19      0.000000000000
  20      0.000000000000
  21      0.000000002334
  22     -0.000000000000
  23     -0.000000000000
  24      0.000000000000
  25      0.000000000000
  26     -0.000000012146
  27     -0.000000012916
  28      0.000000000000
  29     -0.000000004320
  30      0.000000037418
  31      0.000000000000
  32     -0.000000237603
  33      0.000000000000
  34     -0.000000000000
  35      0.000000010362
  36      0.000000000000
  37     -0.000000000000
  38      0.000000000000
  39      0.000000000000
  40      0.000000004951
  41     -0.000000095970
  42      0.000000000000
  43      0.000000002962
  44      0.000000013346
  45     -0.000000000000
  46      0.000000238394
  47     -0.000000000000
  48      0.000000000000
  49     -0.000000003604
 Ene=  -0.10330193187753E+02
 Spin= Alpha
 Occup=    1.000000
   1     -0.000000000000
   2      0.000000000000
   3     -0.000000000000
   4      0.000000000000
   5      0.000000000000
   6     -0.000019605930
   7      0.000000040065
   8     -0.000000000000
   9     -0.000000200332
  10     -0.000000008597
  11      0.000000000000
  12     -0.000000120500
  13      0.000000003426
  14     -0.000000000000
  15     -0.000000045205
  16     -0.000000002612
  17      0.000000000000
  18     -0.000000009368
  19      0.000000000000
  20     -0.000000000000
  21     -0.000000051453
  22      0.000000000001
  23      0.000000000000
  24     -0.000000000000
  25     -0.000000000000
  26     -0.000000011909
  27      0.000000010340
  28     -0.000000000000
  29      0.000000018045
  30      0.000000009916
  31     -0.000000000000
  32     -0.000000017660
  33     -0.000000000000
  34      0.000000000000
  35      0.000000400511
  36     -0.000000000000
  37      0.000000000000
  38     -0.000000000000
  39     -0.000000000000
  40     -0.000000262254
  41      0.000000007188
  42     -0.000000000000
  43     -0.000000039778
  44     -0.000000002235
  45      0.000000000000
  46      0.000000012499
  47      0.000000000000
  48     -0.000000000000
  49     -0.000000504912
 Ene=  -0.81380954253271E+01
 Spin= Alpha
 Occup=    1.000000
   1      0.000000000012
   2     -0.000000000040
   3     -0.000000000002
   4      0.000000000001
   5     -0.000000000000
   6     -0.000665824352
   7      0.000000947915
   8      0.000000000000
   9     -0.000025506344
  10     -0.000000120680
  11      0.000000000000
  12     -0.000005039680
  13     -0.000000032718
  14      0.000000000000
  15      0.000001524095
  16     -0.000000015939
  17      0.000000000000
  18     -0.000000077590
  19     -0.000000000000
  20     -0.000000000000
  21      0.000000632180
  22     -0.000000000000
  23     -0.000000000000
  24     -0.000000000000
  25      0.000000000000
  26     -0.000000008156
  27      0.000000029073
  28      0.000000000001
  29     -0.000000352911
  30      0.000000048708
  31     -0.000000000000
  32      0.000000021522
  33      0.000000000000
  34      0.000000000000
  35      0.000000327703
  36      0.000000000000
  37     -0.000000000000
  38      0.000000000001
  39     -0.000000000000
  40      0.000000157503
  41     -0.000000002645
  42      0.000000000000
  43      0.000000199119
  44     -0.000000028225
  45      0.000000000000
  46      0.000000017369
  47     -0.000000000000
  48     -0.000000000000
  49      0.000000109856
 Ene=  -0.81334819568248E+01
 Spin= Alpha
 Occup=    0.000000
   1      0.000000000000
   2     -0.000000000000
   3     -0.000000000000
   4      0.000000000000
   5     -0.000000000000
   6     -0.000000420224
   7     -0.000593360702
   8     -0.000000000000
   9     -0.000000137677
  10     -0.000021232843
  11      0.000000000000
  12     -0.000000012000
  13     -0.000004049782
  14      0.000000000000
  15     -0.000000007312
  16      0.000001462326
  17      0.000000000000
  18     -0.000000043729
  19     -0.000000000000
  20     -0.000000000000
  21     -0.000000042661
  22     -0.000000000000
  23     -0.000000000000
  24     -0.000000000000
  25      0.000000000000
  26      0.000000007378
  27     -0.000000000227
  28      0.000000000000
  29      0.000000022676
  30     -0.000000369325
  31     -0.000000000000
  32      0.000000174148
  33      0.000000000000
  34      0.000000000000
  35      0.000000008157
  36     -0.000000000000
  37     -0.000000000000
  38      0.000000000000
  39     -0.000000000000
  40     -0.000000000228
  41      0.000000041288
  42      0.000000000000
  43     -0.000000013285
  44      0.000000171193
  45     -0.000000000000
  46      0.000000045171
  47     -0.000000000000
  48     -0.000000000000
  49      0.000000008416
 Ene=  -0.60704664548274E+01
 Spin= Alpha
 Occup=    0.763077
   1     -0.000000000000
   2      0.000000000000
   3     -0.000000000000
   4     -0.000000000000
   5      0.000000000002
   6     -0.208320427613
   7     -0.064174736475
   8      0.000000000006
   9     -0.616546017210
  10     -0.201426906175
  11      0.000000000000
  12     -0.033513408219
  13     -0.010962412961
  14     -0.000000000000
  15      0.006046452184
  16      0.001976800368
  17      0.000000000000
  18      0.000072593525
  19      0.000000000000
  20     -0.000000000000
  21      0.000222384075
  22     -0.000000000000
  23     -0.000000000000
  24     -0.000000000000
  25      0.000000000000
  26      0.000257573574
  27      0.000084875001
  28      0.000000000000
  29     -0.001397429398
  30     -0.000456060670
  31     -0.000000000000
  32      0.000135111010
  33      0.000000000000
  34      0.000000000000
  35      0.000411100108
  36      0.000000000000
  37     -0.000000000000
  38      0.000000000000
  39     -0.000000000000
  40     -0.000005911044
  41     -0.000002088158
  42      0.000000000000
  43      0.000628521227
  44      0.000204982280
  45      0.000000000000
  46      0.000061208891
  47     -0.000000000000
  48     -0.000000000000
  49      0.000186905821
 Ene=  -0.60644243236954E+01
 Spin= Alpha
 Occup=    0.335315
   1      0.000000000000
   2     -0.000000000000
   3      0.000000000000
   4     -0.000000000000
   5     -0.000000000000
   6     -0.062770253687
   7      0.201495834162
   8     -0.000000000000
   9     -0.142057880918
  10      0.501748957530
  11     -0.000000000000
  12     -0.007587984643
  13      0.026885284070
  14      0.000000000000
  15      0.001381391834
  16     -0.004885350106
  17     -0.000000000000
  18     -0.000178849424
  19     -0.000000000000
  20     -0.000000000000
  21      0.000050619695
  22      0.000000000000
  23     -0.000000000000
  24      0.000000000000
  25     -0.000000000000
  26      0.000056681234
  27     -0.000203427574
  28      0.000000000000
  29     -0.000321417576
  30      0.001133046202
  31     -0.000000000000
  32     -0.000320917960
  33     -0.000000000000
  34      0.000000000000
  35      0.000089651845
  36      0.000000000000
  37     -0.000000000000
  38      0.000000000000
  39      0.000000000000
  40     -0.000002104026
  41      0.000007664050
  42      0.000000000000
  43      0.000144542725
  44     -0.000509069673
  45     -0.000000000000
  46     -0.000148112082
  47     -0.000000000000
  48      0.000000000000
  49      0.000041688245
 Ene=  -0.60267692470618E+01
 Spin= Alpha
 Occup=    0.934205
   1     -0.000000000000
   2      0.000000000000
   3     -0.000000000000
   4     -0.000000000000
   5      0.000000000001
   6     -0.049835088467
   7     -0.014068934414
   8      0.000000000012
   9     -0.651231951524
  10     -0.210089281264
  11      0.000000000001
  12     -0.034894065478
  13     -0.011282708565
  14     -0.000000000000
  15      0.006100549115
  16      0.001967266481
  17      0.000000000000
  18      0.000079197390
  19      0.000000000000
  20     -0.000000000000
  21      0.000244198332
  22     -0.000000000000
  23     -0.000000000000
  24     -0.000000000000
  25      0.000000000000
  26      0.000259928142
  27      0.000083703786
  28      0.000000000000
  29     -0.001395423811
  30     -0.000450148791
  31     -0.000000000000
  32      0.000136020932
  33      0.000000000000
  34      0.000000000000
  35      0.000419736615
  36      0.000000000000
  37     -0.000000000000
  38      0.000000000000
  39     -0.000000000000
  40     -0.000003359214
  41     -0.000000555279
  42      0.000000000000
  43      0.000626434713
  44      0.000202268488
  45      0.000000000000
  46      0.000061117690
  47     -0.000000000000
  48     -0.000000000000
  49      0.000188787213
 Ene=  -0.60186467526604E+01
 Spin= Alpha
 Occup=    0.256305
   1     -0.000000000000
   2      0.000000000000
   3     -0.000000000000
   4      0.000000000000
   5      0.000000000001
   6     -0.017293186346
   7      0.056161405216
   8      0.000000000020
   9     -0.094573697815
  10      0.412865666526
  11      0.000000000001
  12     -0.004950477968
  13      0.021806771878
  14     -0.000000000000
  15      0.000876543635
  16     -0.003823884987
  17      0.000000000000
  18     -0.000154398509
  19     -0.000000000000
  20     -0.000000000000
  21      0.000034778093
  22     -0.000000000000
  23      0.000000000000
  24     -0.000000000000
  25      0.000000000000
  26      0.000035971076
  27     -0.000157473902
  28      0.000000000000
  29     -0.000201660453
  30      0.000879319803
  31     -0.000000000000
  32     -0.000253944212
  33     -0.000000000000
  34      0.000000000000
  35      0.000056905147
  36      0.000000000000
  37     -0.000000000000
  38      0.000000000000
  39     -0.000000000000
  40     -0.000001403380
  41      0.000003048873
  42      0.000000000000
  43      0.000090360345
  44     -0.000394911737
  45      0.000000000000
  46     -0.000116230570
  47     -0.000000000000
  48     -0.000000000000
  49      0.000026241047
 Ene=  -0.60151816340406E+01
 Spin= Alpha
 Occup=    0.193753
   1     -0.000000000000
   2      0.000000000000
   3     -0.000000000000
   4     -0.000000000000
   5      0.000000000001
   6     -0.006961438368
   7      0.003329808248
   8      0.000000000016
   9     -0.224904675336
  10     -0.040844612855
  11      0.000000000001
  12     -0.012015459726
  13     -0.002208502978
  14     -0.000000000000
  15      0.002076422642
  16      0.000378278567
  17      0.000000000000
  18      0.000015717814
  19      0.000000000000
  20     -0.000000000000
  21      0.000085860016
  22     -0.000000000000
  23      0.000000000000
  24     -0.000000000000
  25      0.000000000000
  26      0.000086944076
  27      0.000016436627
  28      0.000000000000
  29     -0.000475431510
  30     -0.000085907495
  31     -0.000000000000
  32      0.000027062777
  33     -0.000000000000
  34      0.000000000000
  35      0.000142937767
  36      0.000000000000
  37     -0.000000000000
  38      0.000000000000
  39     -0.000000000000
  40      0.000000216989
  41      0.000000144267
  42      0.000000000000
  43      0.000213846536
  44      0.000038589002
  45      0.000000000000
  46      0.000011957124
  47     -0.000000000000
  48     -0.000000000000
  49      0.000064437990
 Ene=  -0.60141210394383E+01
 Spin= Alpha
 Occup=    0.517345
   1      0.000000000000
   2     -0.000000000000
   3      0.000000000000
   4      0.000000000000
   5     -0.000000000001
   6      0.027961119954
   7     -0.075781448684
   8     -0.000000000020
   9      0.242399367533
  10     -0.658374116642
  11     -0.000000000001
  12      0.012776431497
  13     -0.034704235063
  14      0.000000000000
  15     -0.002233710399
  16      0.006066813739
  17     -0.000000000000
  18      0.000247044848
  19      0.000000000000
  20      0.000000000000
  21     -0.000090943604
  22      0.000000000000
  23     -0.000000000000
  24      0.000000000000
  25     -0.000000000000
  26     -0.000091720898
  27      0.000249098193
  28     -0.000000000000
  29      0.000513326721
  30     -0.001394228874
  31      0.000000000000
  32      0.000402660440
  33      0.000000000000
  34     -0.000000000000
  35     -0.000148230334
  36     -0.000000000000
  37      0.000000000000
  38     -0.000000000000
  39      0.000000000000
  40      0.000001627053
  41     -0.000004366010
  42     -0.000000000000
  43     -0.000230520546
  44      0.000626126996
  45     -0.000000000000
  46      0.000184299989
  47      0.000000000000
  48      0.000000000000
  49     -0.000067847745
 Ene=  -0.98072938847313E+00
 Spin= Alpha
 Occup=    1.000000
   1     -0.000000000000
   2      0.000000000000
   3     -0.000000000000
   4     -0.000000000000
   5     -0.000000000000
   6      0.003379481082
   7      0.000001135933
   8     -0.000000000000
   9     -0.000207160437
  10      0.000001499670
  11      0.000000000000
  12     -0.000136216539
  13     -0.000003078769
  14      0.000000000000
  15     -0.000044040016
  16     -0.000001559969
  17      0.000000000000
  18      0.000000122021
  19     -0.000000000000
  20     -0.000000000000
  21      0.000004610817
  22      0.000000000001
  23     -0.000000000001
  24     -0.000000000000
  25      0.000000000001
  26     -0.000115282478
  27     -0.000000675160
  28      0.000000000000
  29      0.000026804248
  30     -0.000000189532
  31      0.000000000000
  32     -0.000000010708
  33     -0.000000000000
  34     -0.000000000000
  35      0.000003172241
  36      0.000000000001
  37     -0.000000000002
  38     -0.000000000001
  39     -0.000000000001
  40      0.000237758001
  41      0.000001380031
  42     -0.000000000000
  43     -0.000009893604
  44      0.000000203902
  45      0.000000000000
  46     -0.000000081355
  47     -0.000000000000
  48     -0.000000000000
  49      0.000006859992
 Ene=  -0.96553381611396E+00
 Spin= Alpha
 Occup=    0.000000
   1      0.000000000000
   2     -0.000000000000
   3      0.000000000000
   4      0.000000000000
   5      0.000000000000
   6      0.000000936886
   7      0.003440931051
   8     -0.000000000000
   9      0.000001541155
  10     -0.000217460258
  11     -0.000000000000
  12     -0.000003134673
  13     -0.000126321285
  14     -0.000000000000
  15     -0.000001716113
  16     -0.000047278712
  17     -0.000000000000
  18      0.000006409776
  19      0.000000000000
  20      0.000000000000
  21      0.000000095069
  22     -0.000000000000
  23      0.000000000000
  24      0.000000000000
  25     -0.000000000000
  26     -0.000000001223
  27     -0.000081522335
  28      0.000000000000
  29      0.000000150538
  30      0.000024044671
  31     -0.000000000000
  32      0.000002147524
  33      0.000000000000
  34      0.000000000000
  35     -0.000000017069
  36     -0.000000000000
  37      0.000000000000
  38      0.000000000000
  39      0.000000000000
  40      0.000001564779
  41      0.000175423704
  42      0.000000000000
  43      0.000000262126
  44     -0.000013597603
  45     -0.000000000000
  46      0.000005785236
  47      0.000000000000
  48      0.000000000000
  49      0.000000045087
 Ene=  -0.85107367784573E+00
 Spin= Alpha
 Occup=    1.000000
   1      0.000000000000
   2     -0.000000000002
   3      0.000000000003
   4      0.000000000001
   5      0.000000000000
   6     -0.009674882190
   7     -0.000003106962
   8      0.000000000000
   9      0.000546963149
  10     -0.000005742934
  11     -0.000000000001
  12      0.000474176935
  13      0.000011660632
  14     -0.000000000000
  15      0.000169990467
  16      0.000007337158
  17     -0.000000000000
  18      0.000000344738
  19      0.000000000000
  20      0.000000000000
  21     -0.000003201899
  22     -0.000000000000
  23      0.000000000001
  24      0.000000000000
  25      0.000000000002
  26     -0.000134281906
  27      0.000000260332
  28      0.000000000000
  29      0.000012642734
  30     -0.000001288692
  31     -0.000000000000
  32      0.000000075355
  33      0.000000000000
  34      0.000000000000
  35      0.000008728020
  36      0.000000000000
  37     -0.000000000001
  38     -0.000000000000
  39     -0.000000000000
  40      0.000093070096
  41     -0.000000004744
  42      0.000000000000
  43      0.000007175406
  44      0.000000355834
  45      0.000000000000
  46     -0.000000099674
  47     -0.000000000000
  48     -0.000000000000
  49      0.000005153866
 Ene=  -0.82273928264309E+00
 Spin= Alpha
 Occup=    0.000000
   1      0.000000000000
   2     -0.000000000000
   3      0.000000000000
   4      0.000000000000
   5     -0.000000000000
   6      0.000005210946
   7      0.009885520007
   8      0.000000000000
   9      0.000006569202
  10     -0.000580589935
  11     -0.000000000000
  12     -0.000013536983
  13     -0.000435818683
  14     -0.000000000000
  15     -0.000009137825
  16     -0.000162964646
  17     -0.000000000000
  18      0.000013071863
  19      0.000000000000
  20      0.000000000000
  21      0.000000406626
  22     -0.000000000000
  23      0.000000000000
  24     -0.000000000000
  25      0.000000000000
  26     -0.000001778748
  27      0.000085484211
  28     -0.000000000000
  29      0.000000638765
  30     -0.000023309093
  31     -0.000000000000
  32     -0.000010327702
  33      0.000000000000
  34      0.000000000000
  35     -0.000000122397
  36      0.000000000000
  37     -0.000000000000
  38     -0.000000000000
  39     -0.000000000000
  40     -0.000001175186
  41     -0.000060146740
  42     -0.000000000000
  43     -0.000000661185
  44      0.000007868364
  45      0.000000000000
  46     -0.000004684037
  47     -0.000000000000
  48     -0.000000000000
  49     -0.000000063894
 Ene=  -0.52960999009070E+00
 Spin= Alpha
 Occup=    0.999983
   1     -0.000000000000
   2      0.000000000000
   3     -0.000000000000
   4     -0.000000000000
   5      0.000000000000
   6     -0.031744101697
   7     -0.000184058027
   8      0.000000000000
   9      0.000488066529
  10     -0.000144622276
  11     -0.000000000000
  12      0.003803543214
  13      0.000292539531
  14     -0.000000000000
  15      0.002963701646
  16      0.000296931393
  17     -0.000000000000
  18     -0.000025064925
  19     -0.000000000000
  20      0.000000000000
  21     -0.000225289558
  22     -0.000000000000
  23      0.000000000000
  24      0.000000000000
  25      0.000000000000
  26      0.001560714796
  27      0.000192162941
  28      0.000000000000
  29      0.000438775016
  30      0.000050087989
  31     -0.000000000000
  32      0.000004624618
  33     -0.000000000000
  34      0.000000000000
  35      0.000088350271
  36      0.000000000000
  37     -0.000000000000
  38     -0.000000000000
  39      0.000000000000
  40      0.000860819175
  41      0.000134068594
  42      0.000000000000
  43      0.000293581742
  44      0.000043831625
  45     -0.000000000000
  46      0.000009095270
  47     -0.000000000000
  48      0.000000000000
  49      0.000074318648
 Ene=  -0.51392688277466E+00
 Spin= Alpha
 Occup=    0.000029
   1      0.000000000000
   2      0.000000000000
   3     -0.000000000000
   4     -0.000000000000
   5      0.000000000000
   6     -0.000215785416
   7     -0.028845662211
   8     -0.000000000000
   9     -0.000166168767
  10      0.000710383532
  11     -0.000000000000
  12      0.000333629290
  13      0.002939712714
  14     -0.000000000000
  15      0.000348614137
  16      0.002319164204
  17      0.000000000000
  18     -0.000201790077
  19     -0.000000000000
  20      0.000000000000
  21     -0.000030805860
  22     -0.000000000000
  23      0.000000000000
  24      0.000000000000
  25      0.000000000000
  26      0.000265188679
  27      0.001479048398
  28     -0.000000000000
  29      0.000074149505
  30      0.000475693974
  31     -0.000000000000
  32      0.000078778809
  33      0.000000000000
  34      0.000000000000
  35      0.000003784304
  36     -0.000000000000
  37      0.000000000000
  38     -0.000000000000
  39     -0.000000000000
  40      0.000203930148
  41      0.000755855649
  42     -0.000000000000
  43      0.000067892208
  44      0.000221744485
  45      0.000000000000
  46      0.000065065076
  47      0.000000000000
  48     -0.000000000000
  49      0.000013085721
 Ene=  -0.45328570761941E+00
 Spin= Alpha
 Occup=    0.999713
   1     -0.000000000000
   2      0.000000000000
   3     -0.000000000000
   4     -0.000000000000
   5     -0.000000000000
   6      0.228611023422
   7      0.084495982001
   8      0.000000000000
   9      0.126266572472
  10      0.046683647101
  11     -0.000000000000
  12     -0.252002037648
  13     -0.093167066778
  14      0.000000000000
  15     -0.276991067583
  16     -0.102406299002
  17     -0.000000000000
  18      0.016234937479
  19     -0.000000000000
  20     -0.000000000000
  21      0.043912305488
  22      0.000000000000
  23     -0.000000000000
  24      0.000000000000
  25     -0.000000000000
  26     -0.524062019250
  27     -0.193752070690
  28      0.000000000000
  29     -0.179333012560
  30     -0.066301554766
  31     -0.000000000000
  32      0.002331733372
  33      0.000000000000
  34     -0.000000000000
  35      0.006306670166
  36     -0.000000000000
  37      0.000000000000
  38     -0.000000000000
  39     -0.000000000000
  40     -0.477906856082
  41     -0.176687242393
  42     -0.000000000000
  43     -0.165883766749
  44     -0.061329336892
  45      0.000000000000
  46     -0.009786839594
  47     -0.000000000000
  48      0.000000000000
  49     -0.026471461174
 Ene=  -0.43413207196045E+00
 Spin= Alpha
 Occup=    0.999688
   1      0.000000000000
   2     -0.000000000000
   3      0.000000000000
   4      0.000000000000
   5     -0.000000000000
   6     -0.080246264490
   7      0.216938080281
   8     -0.000000000000
   9     -0.038182377876
  10      0.103293231391
  11      0.000000000000
  12      0.076432582392
  13     -0.206748901521
  14      0.000000000000
  15      0.083680745649
  16     -0.226360584053
  17      0.000000000000
  18      0.043497203981