[Molden Format]
[Title]
generated by TRESC, imaginary part2 of MOs of job SCN
 
[Atoms] AU
 S   1  16  -17.2278192557   -6.3208121784    0.0000000000
 C   2   6  -20.3490796710   -6.3208121784    0.0000000000
 N   3   7  -22.5353603590   -6.3208121784    0.0000000000
[GTO]
  1 0
 s  5 1.0
    10081.3659290000        0.0067330718
     1468.8676987000        0.0423201277
      327.2465016600        0.1866835343
       90.5285201140        0.4849802687
       27.5058308280        0.4517376429
 s  3 1.0
       46.3853988360       -0.0950589434
        5.0228188449        0.5843701906
        2.0306206045        0.5413909427
 s  1 1.0
        0.3606627882        1.0000000000
 s  1 1.0
        0.1371410729        1.0000000000
 p  5 1.0
      604.8788900300        0.0002353489
      140.0897861900        0.0017386166
       44.4994657800        0.0077865988
       16.4748871580        0.0220140918
        6.5229645048        0.0378945448
 p  5 1.0
      270.9504306400        0.0092081513
       62.5377853170        0.0653131413
       19.3546142200        0.2445470601
        6.7163477485        0.4820783852
        2.4098646724        0.3917477785
 p  1 1.0
        0.6191509478        1.0000000000
 p  1 1.0
        0.1701457548        1.0000000000
 d  1 1.0
        0.5500000000        1.0000000000
 
  2 0
 s  5 1.0
     1231.7975026000        0.0058423196
      185.5974766200        0.0415113222
       42.0875016200        0.1832849990
       11.6300369400        0.4683526005
        3.5840894779        0.4430601820
 s  1 1.0
        0.4029351893        1.0000000000
 s  1 1.0
        0.1309419451        1.0000000000
 p  3 1.0
        9.4821246358        0.0381720490
        2.0121097169        0.2099973699
        0.5481253660        0.5104097902
 p  1 1.0
        0.1527756940        1.0000000000
 d  1 1.0
        0.8000000000        1.0000000000
 
  3 0
 s  5 1.0
     1706.0150550000        0.0058639453
      255.9938356800        0.0413450288
       58.1565771970        0.1820914202
       16.1430707430        0.4678591214
        4.9963209539        0.4434151324
 s  1 1.0
        0.5882550288        1.0000000000
 s  1 1.0
        0.1877013255        1.0000000000
 p  3 1.0
       13.5897862110        0.0400190920
        2.9274822154        0.2175789499
        0.7994670210        0.5117738303
 p  1 1.0
        0.2195247995        1.0000000000
 d  1 1.0
        1.0000000000        1.0000000000
 
[5D]
[7F]
[9G]
[MO]
 Ene=   0.60655187495964E+00
 Spin= Alpha
 Occup=    0.000000
   1      0.000000000000
   2     -0.000000000000
   3      0.000000000000
   4      0.000000000001
   5     -0.000000000000
   6     -0.197000292058
   7      0.533360537468
   8      0.000000000000
   9      0.088943658021
  10     -0.240630716270
  11     -0.000000000001
  12     -0.261387026368
  13      0.707060673244
  14      0.000000000000
  15      0.212871923863
  16     -0.575793028975
  17      0.000000000001
  18     -0.709201856245
  19      0.000000000000
  20      0.000000000001
  21      0.262140235988
  22      0.000000000000
  23     -0.000000000001
  24      0.000000000001
  25      0.000000000000
  26      0.035197760412
  27     -0.095188523606
  28     -0.000000000001
  29      0.045622395938
  30     -0.123484008779
  31     -0.000000000000
  32      0.103300484724
  33      0.000000000000
  34      0.000000000000
  35     -0.038184356220
  36     -0.000000000000
  37     -0.000000000000
  38     -0.000000000001
  39      0.000000000000
  40     -0.109312721926
  41      0.295774758427
  42      0.000000000000
  43      0.013779800341
  44     -0.037293068789
  45      0.000000000000
  46     -0.009947567785
  47      0.000000000000
  48     -0.000000000000
  49      0.003677261386
 Ene=   0.61409236621866E+00
 Spin= Alpha
 Occup=    0.000000
   1     -0.000000000000
   2      0.000000000000
   3     -0.000000000000
   4      0.000000000000
   5     -0.000000000000
   6     -0.034471997071
   7     -0.012512039516
   8      0.000000000000
   9      0.004278068645
  10      0.001522971979
  11     -0.000000000000
  12     -0.005642000675
  13     -0.001941130108
  14      0.000000000000
  15      0.001630606503
  16      0.000493908053
  17     -0.000000000000
  18      0.005001582798
  19     -0.000000000000
  20      0.000000000000
  21      0.014000156837
  22      0.000000000000
  23     -0.000000000000
  24      0.000000000000
  25      0.000000000000
  26     -0.000823671595
  27     -0.000321317170
  28     -0.000000000000
  29      0.007106202728
  30      0.002584773645
  31     -0.000000000000
  32     -0.000601484707
  33     -0.000000000000
  34      0.000000000000
  35     -0.001692892291
  36     -0.000000000000
  37      0.000000000000
  38     -0.000000000000
  39      0.000000000000
  40     -0.008060018664
  41     -0.002897084764
  42      0.000000000000
  43      0.001112729928
  44      0.000397898972
  45      0.000000000000
  46      0.000052143967
  47     -0.000000000000
  48     -0.000000000000
  49      0.000147397332
 Ene=   0.62317976820253E+00
 Spin= Alpha
 Occup=    0.000000
   1      0.000000000000
   2     -0.000000000000
   3      0.000000000000
   4     -0.000000000000
   5      0.000000000000
   6     -0.016785789908
   7      0.045254533973
   8      0.000000000000
   9      0.003432596033
  10     -0.009272132822
  11     -0.000000000000
  12     -0.007542242443
  13      0.020396675338
  14      0.000000000000
  15      0.005143485561
  16     -0.013919822711
  17      0.000000000000
  18     -0.027720453823
  19      0.000000000000
  20      0.000000000000
  21      0.010264496179
  22      0.000000000000
  23     -0.000000000000
  24      0.000000000000
  25      0.000000000000
  26      0.000645174346
  27     -0.001747606939
  28      0.000000000000
  29      0.003180279259
  30     -0.008579979432
  31      0.000000000000
  32      0.003828236319
  33      0.000000000000
  34      0.000000000000
  35     -0.001417038557
  36     -0.000000000000
  37      0.000000000000
  38      0.000000000000
  39      0.000000000000
  40     -0.004977848649
  41      0.013431076509
  42      0.000000000000
  43      0.000635208838
  44     -0.001707972165
  45      0.000000000000
  46     -0.000369835899
  47      0.000000000000
  48     -0.000000000000
  49      0.000136875324
 Ene=   0.63996757817451E+00
 Spin= Alpha
 Occup=    0.000000
   1     -0.000000000000
   2      0.000000000000
   3     -0.000000000000
   4      0.000000000001
   5     -0.000000000000
   6     -0.000263212293
   7     -0.000305601763
   8      0.000000000000
   9      0.000098474011
  10      0.000117310959
  11     -0.000000000000
  12     -0.000285065431
  13     -0.000337935335
  14     -0.000000000000
  15      0.000276261186
  16      0.000307258351
  17     -0.000000000001
  18      0.000201101609
  19      0.000000000001
  20     -0.000000000000
  21      0.000090076884
  22     -0.000000000000
  23      0.000000000001
  24     -0.000000000000
  25      0.000000000000
  26      0.000063405113
  27      0.000068737671
  28     -0.000000000001
  29     -0.000075073128
  30     -0.000037210365
  31     -0.000000000000
  32     -0.000039048209
  33      0.000000000000
  34     -0.000000000000
  35     -0.000025203611
  36      0.000000000000
  37     -0.000000000000
  38     -0.000000000001
  39      0.000000000000
  40      0.000001663168
  41     -0.000058646278
  42     -0.000000000000
  43     -0.000001761211
  44      0.000010308437
  45     -0.000000000000
  46      0.000004044216
  47      0.000000000000
  48      0.000000000000
  49      0.000002574357
 Ene=   0.64487624832201E+00
 Spin= Alpha
 Occup=    0.000000
   1     -0.000000000000
   2     -0.000000000000
   3      0.000000000000
   4      0.000000000000
   5      0.000000000000
   6      0.000241924287
   7      0.000215180155
   8     -0.000000000000
   9     -0.000091478798
  10      0.000129670662
  11     -0.000000000000
  12      0.000262772366
  13     -0.000525156717
  14     -0.000000000000
  15     -0.000239988657
  16      0.000515255521
  17     -0.000000000000
  18      0.000064763349
  19     -0.000000000000
  20     -0.000000000000
  21     -0.000159996095
  22     -0.000000000000
  23      0.000000000000
  24     -0.000000000000
  25     -0.000000000000
  26     -0.000056163963
  27      0.000067366834
  28     -0.000000000000
  29      0.000033590931
  30     -0.000094553985
  31     -0.000000000000
  32     -0.000036045503
  33     -0.000000000000
  34     -0.000000000000
  35      0.000031045476
  36      0.000000000000
  37     -0.000000000000
  38     -0.000000000000
  39      0.000000000000
  40      0.000055219121
  41      0.000173388585
  42     -0.000000000000
  43     -0.000017193795
  44     -0.000146915063
  45     -0.000000000000
  46      0.000004211086
  47     -0.000000000000
  48      0.000000000000
  49     -0.000003186094
 Ene=   0.64643950639859E+00
 Spin= Alpha
 Occup=    0.000000
   1     -0.000000000000
   2      0.000000000002
   3      0.000000000180
   4     -0.000000003335
   5      0.000000000102
   6     -0.000626677913
   7      0.000052832068
   8     -0.000000000026
   9     -0.000365823337
  10     -0.000025279783
  11      0.000000000075
  12      0.001490388118
  13      0.000080716890
  14      0.000000001797
  15     -0.001452819936
  16     -0.000097758139
  17     -0.000000000090
  18      0.000129783660
  19      0.000000000051
  20      0.000000000037
  21      0.000454509731
  22      0.000000000377
  23     -0.000000002990
  24      0.000000000909
  25      0.000000000710
  26     -0.000304869805
  27     -0.000003741139
  28      0.000000004608
  29      0.000159455200
  30      0.000061649107
  31      0.000000000007
  32     -0.000008089486
  33      0.000000000004
  34     -0.000000000021
  35      0.000062404877
  36     -0.000000000377
  37      0.000000001506
  38      0.000000003099
  39     -0.000000000927
  40     -0.001731409248
  41     -0.000146413388
  42      0.000000003245
  43      0.001495928498
  44      0.000075486159
  45      0.000000000034
  46      0.000000477929
  47      0.000000000005
  48     -0.000000000072
  49     -0.000048160130
 Ene=   0.65265473537216E+00
 Spin= Alpha
 Occup=    0.000000
   1      0.000000000000
   2     -0.000000000000
   3      0.000000000000
   4     -0.000000000000
   5     -0.000000000000
   6     -0.000080858046
   7     -0.000058867227
   8      0.000000000000
   9      0.000034701237
  10      0.000291445393
  11     -0.000000000000
  12     -0.000106781576
  13     -0.001013908077
  14      0.000000000000
  15      0.000119153488
  16      0.000866908647
  17     -0.000000000000
  18      0.000028827446
  19     -0.000000000000
  20     -0.000000000000
  21     -0.000092599717
  22      0.000000000000
  23     -0.000000000000
  24      0.000000000000
  25      0.000000000000
  26      0.000010342954
  27      0.000168636599
  28      0.000000000000
  29     -0.000058992601
  30      0.000166583093
  31     -0.000000000000
  32     -0.000083981445
  33     -0.000000000000
  34     -0.000000000000
  35      0.000002863416
  36     -0.000000000000
  37      0.000000000000
  38      0.000000000000
  39     -0.000000000000
  40      0.000121318176
  41      0.001055347155
  42      0.000000000000
  43     -0.000063227885
  44     -0.001101248856
  45      0.000000000000
  46      0.000038880772
  47      0.000000000000
  48     -0.000000000000
  49     -0.000000176141
 Ene=   0.70792017339267E+00
 Spin= Alpha
 Occup=    0.000000
   1      0.000000000000
   2     -0.000000000000
   3      0.000000000000
   4     -0.000000000005
   5     -0.000000000001
   6     -0.566006068494
   7     -0.209333534150
   8      0.000000000000
   9      0.287498646777
  10      0.106283263476
  11     -0.000000000001
  12     -0.891385932925
  13     -0.329503471124
  14      0.000000000003
  15      0.905305003762
  16      0.334640463644
  17     -0.000000000000
  18     -0.161757942252
  19      0.000000000000
  20     -0.000000000000
  21     -0.437660679531
  22      0.000000000000
  23     -0.000000000001
  24      0.000000000003
  25     -0.000000000001
  26      0.044949918504
  27      0.016611467478
  28      0.000000000006
  29     -0.309160739753
  30     -0.114269459077
  31     -0.000000000000
  32     -0.001773075705
  33      0.000000000000
  34      0.000000000000
  35     -0.004789363055
  36      0.000000000000
  37     -0.000000000000
  38      0.000000000004
  39      0.000000000000
  40      0.719672503349
  41      0.266006897943
  42      0.000000000000
  43     -0.404345593152
  44     -0.149458072427
  45     -0.000000000000
  46     -0.000774996855
  47      0.000000000000
  48      0.000000000000
  49     -0.002096265851
 Ene=   0.72243186816506E+00
 Spin= Alpha
 Occup=    0.000000
   1      0.000000000000
   2     -0.000000000001
   3      0.000000000013
   4     -0.000000000133
   5     -0.000000000005
   6      0.047766199844
   7      0.017925296288
   8      0.000000000005
   9     -0.012601253220
  10     -0.009345002825
  11     -0.000000000016
  12      0.032658687221
  13      0.029006026406
  14      0.000000000087
  15     -0.031314977586
  16     -0.029031825190
  17     -0.000000000002
  18      0.014331316593
  19      0.000000000001
  20      0.000000000001
  21      0.012087205545
  22      0.000000000005
  23     -0.000000000032
  24      0.000000000080
  25     -0.000000000029
  26     -0.000314037210
  27     -0.000780283657
  28      0.000000000153
  29      0.008126028844
  30      0.009004241315
  31     -0.000000000001
  32      0.000185995921
  33      0.000000000000
  34      0.000000000002
  35      0.000691279650
  36      0.000000000000
  37     -0.000000000001
  38      0.000000000080
  39      0.000000000010
  40     -0.023616385806
  41     -0.024345952487
  42     -0.000000000000
  43      0.014294696995
  44      0.014123563864
  45     -0.000000000001
  46      0.000072832670
  47     -0.000000000000
  48      0.000000000001
  49      0.000083182163
 Ene=   0.72628425148500E+00
 Spin= Alpha
 Occup=    0.000000
   1     -0.000000000000
   2      0.000000000000
   3     -0.000000000000
   4      0.000000000002
   5      0.000000000000
   6      0.019731045667
   7     -0.005681993482
   8     -0.000000000000
   9     -0.010235759637
  10      0.014936100176
  11      0.000000000000
  12      0.031707225048
  13     -0.052510891175
  14     -0.000000000001
  15     -0.031567771215
  16      0.053487581210
  17      0.000000000000
  18     -0.029099272021
  19     -0.000000000000
  20     -0.000000000000
  21      0.015466810189
  22     -0.000000000000
  23      0.000000000000
  24     -0.000000000001
  25      0.000000000000
  26     -0.000673004116
  27      0.001579837213
  28     -0.000000000002
  29      0.009461363701
  30     -0.017488994380
  31      0.000000000000
  32      0.000041847889
  33     -0.000000000000
  34     -0.000000000000
  35      0.000239676922
  36     -0.000000000000
  37      0.000000000000
  38     -0.000000000001
  39     -0.000000000000
  40     -0.026708452808
  41      0.047408446290
  42      0.000000000000
  43      0.015651442993
  44     -0.027148468101
  45      0.000000000000
  46     -0.000137026960
  47      0.000000000000
  48     -0.000000000000
  49      0.000077510540
 Ene=   0.73444749769108E+00
 Spin= Alpha
 Occup=    0.000000
   1     -0.000000000000
   2      0.000000000000
   3     -0.000000000000
   4      0.000000000004
   5      0.000000000001
   6     -0.196197569982
   7      0.531391872081
   8     -0.000000000000
   9      0.105245604727
  10     -0.284812994213
  11      0.000000000000
  12     -0.326968721724
  13      0.884716965746
  14     -0.000000000002
  15      0.322198185565
  16     -0.871790155016
  17     -0.000000000000
  18      0.421550720479
  19     -0.000000000000
  20     -0.000000000000
  21     -0.155812827594
  22     -0.000000000000
  23      0.000000000001
  24     -0.000000000002
  25      0.000000000001
  26      0.003276006605
  27     -0.008858149335
  28     -0.000000000004
  29     -0.089586522673
  30      0.242370320353
  31      0.000000000000
  32      0.008711822329
  33     -0.000000000000
  34     -0.000000000000
  35     -0.003216797481
  36      0.000000000000
  37     -0.000000000000
  38     -0.000000000002
  39     -0.000000000000
  40      0.278441498393
  41     -0.753377188348
  42      0.000000000000
  43     -0.166629288397
  44      0.450866101975
  45      0.000000000000
  46      0.001997105137
  47      0.000000000000
  48     -0.000000000000
  49     -0.000738383971
 Ene=   0.74115870213894E+00
 Spin= Alpha
 Occup=    0.000000
   1     -0.000000000000
   2      0.000000000000
   3     -0.000000000000
   4      0.000000000000
   5     -0.000000000000
   6     -0.056672546941
   7     -0.020642272291
   8      0.000000000000
   9      0.012190815641
  10      0.004392570025
  11      0.000000000000
  12     -0.028741651242
  13     -0.010296471364
  14     -0.000000000000
  15      0.026642993944
  16      0.009532365833
  17      0.000000000000
  18     -0.003320154201
  19      0.000000000000
  20     -0.000000000000
  21     -0.009367478752
  22     -0.000000000000
  23      0.000000000000
  24     -0.000000000000
  25      0.000000000000
  26      0.000254213889
  27      0.000095013502
  28     -0.000000000000
  29     -0.005571160557
  30     -0.001983701257
  31      0.000000000000
  32     -0.000329148265
  33      0.000000000000
  34     -0.000000000000
  35     -0.000905473601
  36      0.000000000000
  37     -0.000000000000
  38      0.000000000000
  39     -0.000000000000
  40      0.021347664441
  41      0.007616317002
  42      0.000000000000
  43     -0.013879215724
  44     -0.004958883420
  45      0.000000000000
  46      0.000010099708
  47      0.000000000000
  48     -0.000000000000
  49      0.000025976188
 Ene=   0.74989239591462E+00
 Spin= Alpha
 Occup=    0.000000
   1      0.000000000000
   2     -0.000000000000
   3      0.000000000000
   4     -0.000000000000
   5     -0.000000000000
   6      0.028063012545
   7     -0.075780598964
   8      0.000000000000
   9     -0.008292003818
  10      0.022410125765
  11     -0.000000000000
  12      0.022283863305
  13     -0.060241635682
  14      0.000000000000
  15     -0.020965843608
  16      0.056682079684
  17      0.000000000000
  18     -0.023149456862
  19      0.000000000000
  20      0.000000000000
  21      0.008561656149
  22      0.000000000000
  23     -0.000000000000
  24      0.000000000000
  25     -0.000000000000
  26      0.000138092221
  27     -0.000369787863
  28      0.000000000000
  29      0.004395176929
  30     -0.011891010711
  31     -0.000000000000
  32     -0.001483921931
  33     -0.000000000000
  34      0.000000000000
  35      0.000549402912
  36     -0.000000000000
  37      0.000000000000
  38      0.000000000000
  39      0.000000000000
  40     -0.018154689647
  41      0.049076068366
  42     -0.000000000000
  43      0.011671316103
  44     -0.031544460121
  45     -0.000000000000
  46     -0.000013725421
  47     -0.000000000000
  48      0.000000000000
  49      0.000005013575
 Ene=   0.86285752453103E+00
 Spin= Alpha
 Occup=    0.000000
   1     -0.000000000000
   2      0.000000000000
   3     -0.000000000000
   4      0.000000000001
   5     -0.000000000000
   6     -0.247449261429
   7     -0.091519715377
   8     -0.000000000000
   9      0.123532060421
  10      0.045673660158
  11      0.000000000000
  12     -0.409294635784
  13     -0.151319134291
  14     -0.000000000000
  15      0.670952962548
  16      0.248049323049
  17      0.000000000000
  18     -0.135339853104
  19      0.000000000000
  20     -0.000000000000
  21     -0.366091289228
  22     -0.000000000000
  23      0.000000000000
  24     -0.000000000001
  25      0.000000000000
  26      0.354854315039
  27      0.131185951782
  28     -0.000000000000
  29     -1.099583841604
  30     -0.406504909089
  31      0.000000000000
  32      0.052509872567
  33     -0.000000000000
  34     -0.000000000000
  35      0.142038842820
  36      0.000000000000
  37     -0.000000000000
  38      0.000000000001
  39      0.000000000000
  40     -1.070481740209
  41     -0.395744410631
  42      0.000000000000
  43      1.323926679197
  44      0.489440184512
  45      0.000000000000
  46     -0.016601232131
  47      0.000000000000
  48     -0.000000000000
  49     -0.044905469684
 Ene=   0.87877727703716E+00
 Spin= Alpha
 Occup=    0.000000
   1     -0.000000000000
   2      0.000000000000
   3     -0.000000000000
   4      0.000000000000
   5      0.000000000000
   6     -0.094154940707
   7      0.254910035065
   8     -0.000000000000
   9      0.049670029180
  10     -0.134389197930
  11      0.000000000000
  12     -0.164235748006
  13      0.444313838032
  14     -0.000000000000
  15      0.257735201782
  16     -0.697237920946
  17     -0.000000000000
  18      0.382360782186
  19     -0.000000000000
  20     -0.000000000000
  21     -0.141344900653
  22     -0.000000000000
  23      0.000000000000
  24     -0.000000000000
  25      0.000000000000
  26      0.126194238310
  27     -0.341378084198
  28     -0.000000000000
  29     -0.403887195018
  30      1.092587549476
  31      0.000000000000
  32     -0.146359429530
  33      0.000000000000
  34     -0.000000000000
  35      0.054104085544
  36      0.000000000000
  37     -0.000000000000
  38      0.000000000000
  39      0.000000000000
  40     -0.387790875605
  41      1.049038477361
  42      0.000000000000
  43      0.481773209348
  44     -1.303277184012
  45      0.000000000000
  46      0.045713559812
  47     -0.000000000000
  48     -0.000000000000
  49     -0.016898346451
 Ene=   0.88346066199531E+00
 Spin= Alpha
 Occup=    0.000000
   1     -0.000000000000
   2     -0.000000000000
   3      0.000000000000
   4     -0.000000000000
   5     -0.000000000000
   6      0.025557545964
   7      0.009380774938
   8     -0.000000000000
   9     -0.004720485516
  10     -0.001722635467
  11      0.000000000000
  12      0.010746641675
  13      0.003906833620
  14     -0.000000000000
  15     -0.014947881343
  16     -0.005428606605
  17     -0.000000000000
  18      0.002515683003
  19     -0.000000000000
  20      0.000000000000
  21      0.006943332531
  22      0.000000000000
  23     -0.000000000000
  24      0.000000000000
  25     -0.000000000000
  26     -0.006927815712
  27     -0.002516284900
  28     -0.000000000000
  29      0.021249464897
  30      0.007710532920
  31     -0.000000000000
  32     -0.000971370143
  33      0.000000000000
  34      0.000000000000
  35     -0.002679696206
  36     -0.000000000000
  37      0.000000000000
  38     -0.000000000000
  39      0.000000000000
  40      0.020289491692
  41      0.007363311246
  42     -0.000000000000
  43     -0.024953638565
  44     -0.009053791669
  45      0.000000000000
  46      0.000323520981
  47     -0.000000000000
  48     -0.000000000000
  49      0.000891892065
 Ene=   0.88916823636606E+00
 Spin= Alpha
 Occup=    0.000000
   1      0.000000000000
   2     -0.000000000000
   3      0.000000000000
   4     -0.000000000000
   5     -0.000000000000
   6      0.011593056813
   7     -0.031187123471
   8      0.000000000000
   9     -0.002904201503
  10      0.007827117401
  11     -0.000000000000
  12      0.007770408882
  13     -0.020960938659
  14      0.000000000000
  15     -0.011195639412
  16      0.030213689378
  17      0.000000000000
  18     -0.015216194634
  19      0.000000000000
  20      0.000000000000
  21      0.005636454652
  22      0.000000000000
  23      0.000000000000
  24      0.000000000000
  25     -0.000000000000
  26     -0.005112407722
  27      0.013802247763
  28     -0.000000000000
  29      0.016277313219
  30     -0.043942629168
  31     -0.000000000000
  32      0.005804672273
  33     -0.000000000000
  34      0.000000000000
  35     -0.002149852807
  36     -0.000000000000
  37      0.000000000000
  38     -0.000000000000
  39     -0.000000000000
  40      0.015456709815
  41     -0.041731768736
  42     -0.000000000000
  43     -0.019156847218
  44      0.051720811109
  45     -0.000000000000
  46     -0.001863636224
  47     -0.000000000000
  48      0.000000000000
  49      0.000690425273
 Ene=   0.91798260078696E+00
 Spin= Alpha
 Occup=    0.000000
   1     -0.000000000000
   2      0.000000000000
   3     -0.000000000000
   4      0.000000000001
   5      0.000000000000
   6     -0.047432938687
   7      0.000405825666
   8     -0.000000000000
   9      0.006469153302
  10     -0.000324013652
  11      0.000000000000
  12     -0.010888974985
  13      0.001078894195
  14     -0.000000000001
  15      0.011952970788
  16     -0.001431314227
  17     -0.000000000000
  18      0.000716167222
  19      0.000000000000
  20      0.000000000000
  21     -0.004346059908
  22      0.000000000000
  23     -0.000000000000
  24     -0.000000000000
  25      0.000000000000
  26      0.003635298032
  27     -0.000525935208
  28     -0.000000000000
  29     -0.012422108000
  30      0.001827883244
  31     -0.000000000000
  32     -0.000250893833
  33      0.000000000000
  34      0.000000000000
  35      0.001431504103
  36     -0.000000000000
  37      0.000000000000
  38     -0.000000000000
  39      0.000000000000
  40     -0.010575599113
  41      0.001598999316
  42     -0.000000000000
  43      0.013452652916
  44     -0.002053086250
  45      0.000000000000
  46      0.000079970932
  47      0.000000000000
  48     -0.000000000000
  49     -0.000607727727
 Ene=   0.92677026160653E+00
 Spin= Alpha
 Occup=    0.000000
   1      0.000000000000
   2     -0.000000000000
   3      0.000000000000
   4     -0.000000000000
   5     -0.000000000000
   6      0.000268640994
   7     -0.045191965444
   8      0.000000000000
   9     -0.000226819389
  10      0.006284833052
  11     -0.000000000000
  12      0.000753422419
  13     -0.010870878489
  14      0.000000000000
  15     -0.000967767947
  16      0.011988959138
  17      0.000000000000
  18     -0.004431155006
  19      0.000000000000
  20     -0.000000000000
  21      0.000468157761
  22     -0.000000000000
  23      0.000000000000
  24      0.000000000000
  25     -0.000000000000
  26     -0.000332902329
  27      0.003540002470
  28      0.000000000000
  29      0.001174904961
  30     -0.012263770486
  31      0.000000000000
  32      0.001431811094
  33     -0.000000000000
  34     -0.000000000000
  35     -0.000160346692
  36      0.000000000000
  37     -0.000000000000
  38      0.000000000000
  39     -0.000000000000
  40      0.001001652122
  41     -0.010217289184
  42      0.000000000000
  43     -0.001297992632
  44      0.013142544363
  45     -0.000000000000
  46     -0.000594145338
  47     -0.000000000000
  48      0.000000000000
  49      0.000051929651
 Ene=   0.10490322467994E+01
 Spin= Alpha
 Occup=    0.000000
   1      0.000000000000
   2     -0.000000000000
   3      0.000000000001
   4      0.000000000008
   5     -0.000000000000
   6     -0.005521675143
   7     -0.000004056932
   8      0.000000000000
   9      0.000586679052
  10     -0.000005667682
  11     -0.000000000000
  12     -0.000661140102
  13      0.000019944464
  14     -0.000000000005
  15      0.000551370672
  16     -0.000019784966
  17     -0.000000000001
  18      0.000003857831
  19      0.000000000000
  20      0.000000000001
  21     -0.000062126656
  22     -0.000000000000
  23      0.000000000004
  24      0.000000000007
  25     -0.000000000001
  26     -0.000018991532
  27     -0.000004687251
  28     -0.000000000017
  29     -0.000346452741
  30      0.000015844643
  31     -0.000000000000
  32     -0.000001684115
  33     -0.000000000000
  34      0.000000000000
  35      0.000054647493
  36     -0.000000000000
  37      0.000000000004
  38     -0.000000000023
  39     -0.000000000001
  40     -0.000564795744
  41      0.000015296059
  42     -0.000000000007
  43      0.000542852387
  44     -0.000017462710
  45     -0.000000000000
  46      0.000000776296
  47     -0.000000000000
  48      0.000000000000
  49     -0.000075435187
 Ene=   0.10567680717329E+01
 Spin= Alpha
 Occup=    0.000000
   1      0.000000000000
   2     -0.000000000000
   3      0.000000000000
   4      0.000000000000
   5      0.000000000000
   6     -0.000004222392
   7     -0.004952296747
   8     -0.000000000000
   9     -0.000004905311
  10      0.000531193590
  11     -0.000000000000
  12      0.000017467800
  13     -0.000613620795
  14     -0.000000000000
  15     -0.000017720071
  16      0.000520571672
  17     -0.000000000000
  18     -0.000083885006
  19      0.000000000000
  20      0.000000000000
  21      0.000005231987
  22     -0.000000000000
  23      0.000000000000
  24      0.000000000000
  25     -0.000000000000
  26     -0.000004080788
  27     -0.000006312579
  28     -0.000000000000
  29      0.000015044947
  30     -0.000334387203
  31     -0.000000000000
  32      0.000054318470
  33      0.000000000000
  34      0.000000000000
  35     -0.000002032953
  36     -0.000000000000
  37      0.000000000000
  38     -0.000000000000
  39     -0.000000000000
  40      0.000013925194
  41     -0.000499548177
  42     -0.000000000000
  43     -0.000016401339
  44      0.000498863697
  45     -0.000000000000
  46     -0.000063235612
  47     -0.000000000000
  48      0.000000000000
  49      0.000000743630
 Ene=   0.12448576526966E+01
 Spin= Alpha
 Occup=    0.000000
   1     -0.000000000000
   2      0.000000000000
   3     -0.000000000001
   4      0.000000000003
   5      0.000000000001
   6     -0.003869962216
   7     -0.000006752317
   8     -0.000000000000
   9      0.000361064383
  10     -0.000000889145
  11      0.000000000000
  12     -0.000295197796
  13      0.000004229392
  14     -0.000000000002
  15      0.000185179615
  16     -0.000004095202
  17     -0.000000000001
  18     -0.000002484863