[Molden Format]
[Title]
generated by TRESC, real part1 of MOs of job SCN
 
[Atoms] AU
 S   1  16  -17.2278192557   -6.3208121784    0.0000000000
 C   2   6  -20.3490796710   -6.3208121784    0.0000000000
 N   3   7  -22.5353603590   -6.3208121784    0.0000000000
[GTO]
  1 0
 s  5 1.0
    10081.3659290000        0.0067330718
     1468.8676987000        0.0423201277
      327.2465016600        0.1866835343
       90.5285201140        0.4849802687
       27.5058308280        0.4517376429
 s  3 1.0
       46.3853988360       -0.0950589434
        5.0228188449        0.5843701906
        2.0306206045        0.5413909427
 s  1 1.0
        0.3606627882        1.0000000000
 s  1 1.0
        0.1371410729        1.0000000000
 p  5 1.0
      604.8788900300        0.0002353489
      140.0897861900        0.0017386166
       44.4994657800        0.0077865988
       16.4748871580        0.0220140918
        6.5229645048        0.0378945448
 p  5 1.0
      270.9504306400        0.0092081513
       62.5377853170        0.0653131413
       19.3546142200        0.2445470601
        6.7163477485        0.4820783852
        2.4098646724        0.3917477785
 p  1 1.0
        0.6191509478        1.0000000000
 p  1 1.0
        0.1701457548        1.0000000000
 d  1 1.0
        0.5500000000        1.0000000000
 
  2 0
 s  5 1.0
     1231.7975026000        0.0058423196
      185.5974766200        0.0415113222
       42.0875016200        0.1832849990
       11.6300369400        0.4683526005
        3.5840894779        0.4430601820
 s  1 1.0
        0.4029351893        1.0000000000
 s  1 1.0
        0.1309419451        1.0000000000
 p  3 1.0
        9.4821246358        0.0381720490
        2.0121097169        0.2099973699
        0.5481253660        0.5104097902
 p  1 1.0
        0.1527756940        1.0000000000
 d  1 1.0
        0.8000000000        1.0000000000
 
  3 0
 s  5 1.0
     1706.0150550000        0.0058639453
      255.9938356800        0.0413450288
       58.1565771970        0.1820914202
       16.1430707430        0.4678591214
        4.9963209539        0.4434151324
 s  1 1.0
        0.5882550288        1.0000000000
 s  1 1.0
        0.1877013255        1.0000000000
 p  3 1.0
       13.5897862110        0.0400190920
        2.9274822154        0.2175789499
        0.7994670210        0.5117738303
 p  1 1.0
        0.2195247995        1.0000000000
 d  1 1.0
        1.0000000000        1.0000000000
 
[5D]
[7F]
[9G]
[MO]
 Ene=  -0.89343103019322E+02
 Spin= Alpha
 Occup=    0.999994
   1     -0.970530395155
   2     -0.021656244490
   3      0.009985892518
   4     -0.003581850776
   5     -0.009545375210
   6     -0.000000000001
   7      0.000000000000
   8      0.000820348024
   9      0.000000000000
  10     -0.000000000000
  11     -0.000821837002
  12     -0.000000000000
  13      0.000000000000
  14     -0.000436205496
  15      0.000000000000
  16     -0.000000000000
  17     -0.000197192858
  18     -0.000000000000
  19      0.000000367799
  20      0.000340654378
  21     -0.000000000000
  22      0.000116617424
  23      0.000316879939
  24      0.004008614413
  25     -0.000445510762
  26      0.000000000000
  27      0.000000000000
  28     -0.004837892248
  29     -0.000000000000
  30     -0.000000000000
  31      0.000494923928
  32     -0.000000000000
  33     -0.000000012238
  34     -0.000857199837
  35      0.000000000000
  36     -0.000115837780
  37      0.001406083034
  38     -0.006961490212
  39      0.000672120757
  40     -0.000000000000
  41     -0.000000000000
  42     -0.002255072138
  43      0.000000000000
  44      0.000000000000
  45     -0.000048696303
  46     -0.000000000000
  47     -0.000000004595
  48      0.000084365935
  49      0.000000000000
 Ene=  -0.89338119237658E+02
 Spin= Alpha
 Occup=    0.000006
   1     -0.002298343499
   2     -0.000051335172
   3      0.000023647819
   4     -0.000008471813
   5     -0.000022616778
   6     -0.000000000000
   7      0.000000000000
   8      0.000001943597
   9      0.000000000000
  10     -0.000000000000
  11     -0.000001946087
  12     -0.000000000000
  13      0.000000000000
  14     -0.000001038250
  15      0.000000000000
  16     -0.000000000000
  17     -0.000000473089
  18     -0.000000000000
  19      0.000000006564
  20      0.000000797338
  21      0.000000000000
  22      0.000000277346
  23      0.000000752606
  24      0.000009491851
  25     -0.000001055440
  26     -0.000000000000
  27      0.000000000000
  28     -0.000011466819
  29     -0.000000000000
  30      0.000000000000
  31      0.000001172944
  32     -0.000000000000
  33     -0.000000000576
  34     -0.000002029776
  35     -0.000000000000
  36     -0.000000272141
  37      0.000003333329
  38     -0.000016496518
  39      0.000001592872
  40      0.000000000000
  41     -0.000000000000
  42     -0.000005343634
  43      0.000000000000
  44     -0.000000000000
  45     -0.000000114111
  46     -0.000000000000
  47     -0.000000000403
  48      0.000000201816
  49     -0.000000000000
 Ene=  -0.14448947910949E+02
 Spin= Alpha
 Occup=    1.000000
   1     -0.000047085507
   2      0.000389870689
   3     -0.001946280335
   4     -0.009985307071
   5      0.011696995864
   6     -0.000000000000
   7      0.000000000000
   8     -0.000906448496
   9      0.000000000000
  10     -0.000000000000
  11      0.001050139407
  12      0.000000000000
  13      0.000000000000
  14      0.005810769849
  15     -0.000000000000
  16     -0.000000000000
  17      0.000441922506
  18     -0.000000000000
  19     -0.000000046543
  20     -0.000765370634
  21      0.000000000000
  22     -0.000293328804
  23     -0.001804961429
  24     -0.021032658693
  25     -0.005418980376
  26     -0.000000000000
  27     -0.000000000000
  28      0.028910987113
  29      0.000000000000
  30      0.000000000000
  31     -0.001335633486
  32     -0.000000000000
  33      0.000004662185
  34      0.002302515775
  35     -0.000000000000
  36     -0.990517269034
  37     -0.044750617776
  38      0.053812453311
  39     -0.007570538746
  40     -0.000000000000
  41      0.000000000000
  42      0.014395709729
  43     -0.000000000000
  44      0.000000000000
  45      0.000715337636
  46     -0.000000000000
  47     -0.000069663248
  48     -0.001075588697
  49     -0.000000000000
 Ene=  -0.14441480566256E+02
 Spin= Alpha
 Occup=    0.000000
   1      0.000000013238
   2     -0.000000115673
   3      0.000000663613
   4      0.000003255488
   5     -0.000003837987
   6     -0.000000000000
   7      0.000000000000
   8      0.000000297666
   9      0.000000000000
  10     -0.000000000000
  11     -0.000000348474
  12     -0.000000000000
  13      0.000000000000
  14     -0.000001898773
  15      0.000000000000
  16     -0.000000000000
  17     -0.000000138877
  18      0.000000000000
  19     -0.000000001655
  20      0.000000258116
  21     -0.000000000000
  22      0.000000068066
  23      0.000000598915
  24      0.000006909473
  25      0.000001769146
  26      0.000000000000
  27     -0.000000000000
  28     -0.000009483929
  29      0.000000000000
  30      0.000000000000
  31      0.000000432349
  32     -0.000000000000
  33     -0.000000002852
  34     -0.000000755897
  35      0.000000000000
  36      0.000324979801
  37      0.000014671747
  38     -0.000017643608
  39      0.000002466572
  40     -0.000000000000
  41      0.000000000000
  42     -0.000004723535
  43     -0.000000000000
  44     -0.000000000000
  45     -0.000000254934
  46      0.000000000000
  47      0.000000117036
  48      0.000000282671
  49      0.000000000000
 Ene=  -0.10332960717504E+02
 Spin= Alpha
 Occup=    0.000000
   1      0.000000015895
   2     -0.000000093294
   3      0.000000159704
   4     -0.000002513555
   5     -0.000003947368
   6      0.000000000000
   7     -0.000000000000
   8      0.000000309196
   9     -0.000000000000
  10      0.000000000000
  11     -0.000000268600
  12      0.000000000000
  13     -0.000000000000
  14      0.000001284873
  15     -0.000000000000
  16      0.000000000000
  17     -0.000000115798
  18     -0.000000000000
  19      0.000000002923
  20      0.000000190627
  21     -0.000000000000
  22     -0.000113379945
  23     -0.000005611608
  24      0.000000255049
  25      0.000000251520
  26      0.000000000000
  27      0.000000000000
  28      0.000004400077
  29      0.000000000000
  30     -0.000000000000
  31      0.000000230909
  32      0.000000000000
  33      0.000000044472
  34     -0.000000407657
  35     -0.000000000000
  36      0.000000050053
  37     -0.000000072027
  38      0.000004876110
  39      0.000000331512
  40     -0.000000000000
  41      0.000000000000
  42      0.000001956402
  43     -0.000000000000
  44     -0.000000000000
  45     -0.000000043457
  46     -0.000000000000
  47     -0.000000005299
  48      0.000000092415
  49      0.000000000000
 Ene=  -0.10330193187753E+02
 Spin= Alpha
 Occup=    1.000000
   1     -0.000079019383
   2      0.000606879543
   3     -0.001543083387
   4      0.022042768755
   5      0.034222380420
   6     -0.000000000000
   7     -0.000000000000
   8     -0.002671766893
   9      0.000000000000
  10     -0.000000000000
  11      0.002369842056
  12      0.000000000000
  13     -0.000000000000
  14     -0.011256536965
  15      0.000000000000
  16      0.000000000000
  17      0.000977020541
  18      0.000000000000
  19      0.000000421263
  20     -0.001693201711
  21     -0.000000000000
  22      0.989737942073
  23      0.048949731756
  24     -0.002167605998
  25     -0.002262661966
  26     -0.000000000000
  27     -0.000000000000
  28     -0.038421125080
  29      0.000000000000
  30     -0.000000000000
  31     -0.001986071343
  32      0.000000000000
  33     -0.000010142230
  34      0.003463864430
  35      0.000000000000
  36     -0.000722705781
  37      0.000744109142
  38     -0.042688630925
  39     -0.002819978495
  40     -0.000000000000
  41     -0.000000000000
  42     -0.017129584762
  43     -0.000000000000
  44      0.000000000000
  45      0.000416335660
  46     -0.000000000000
  47      0.000002095046
  48     -0.000726066749
  49      0.000000000000
 Ene=  -0.81380954253271E+01
 Spin= Alpha
 Occup=    1.000000
   1      0.301113957285
   2     -0.968772410060
   3     -0.047708683641
   4      0.012141564552
   5     -0.002284087576
   6     -0.000000000000
   7     -0.000000000000
   8      0.007689529037
   9      0.000000000000
  10     -0.000000000000
  11      0.002135096996
  12     -0.000000000000
  13     -0.000000000000
  14      0.001728224374
  15      0.000000000000
  16      0.000000000000
  17      0.000901639459
  18     -0.000000000000
  19     -0.000324659429
  20     -0.000803025588
  21     -0.000000000000
  22     -0.000083138542
  23     -0.000855578876
  24     -0.009974343158
  25      0.001707064512
  26      0.000000000000
  27     -0.000000000000
  28      0.012855434063
  29     -0.000000000000
  30      0.000000000000
  31     -0.000785491921
  32     -0.000000000000
  33      0.000008356485
  34      0.001340965180
  35      0.000000000000
  36      0.000218134657
  37     -0.002774992126
  38      0.017565231806
  39     -0.000928524861
  40     -0.000000000000
  41      0.000000000000
  42      0.005540645049
  43      0.000000000000
  44     -0.000000000000
  45      0.000023829395
  46     -0.000000000000
  47     -0.000000737765
  48     -0.000039610805
  49      0.000000000000
 Ene=  -0.81334819568248E+01
 Spin= Alpha
 Occup=    0.000000
   1      0.000099840264
   2     -0.000321068756
   3     -0.000015745290
   4      0.000003923057
   5     -0.000000610873
   6     -0.000000000000
   7      0.000000000000
   8      0.000002561074
   9     -0.000000000000
  10      0.000000000000
  11      0.000000702606
  12     -0.000000000000
  13      0.000000000000
  14      0.000000609232
  15      0.000000000000
  16     -0.000000000000
  17      0.000000308028
  18     -0.000000000000
  19     -0.000000184332
  20     -0.000000223611
  21      0.000000000000
  22      0.000000002828
  23     -0.000000295819
  24     -0.000003270928
  25      0.000000570134
  26      0.000000000000
  27      0.000000000000
  28      0.000004303560
  29     -0.000000000000
  30      0.000000000000
  31     -0.000000261621
  32     -0.000000000000
  33      0.000000006964
  34      0.000000438843
  35      0.000000000000
  36      0.000000096441
  37     -0.000000932343
  38      0.000005853005
  39     -0.000000310787
  40      0.000000000000
  41     -0.000000000000
  42      0.000001845630
  43      0.000000000000
  44     -0.000000000000
  45      0.000000000614
  46     -0.000000000000
  47      0.000000001698
  48     -0.000000022623
  49      0.000000000000
 Ene=  -0.60704664548274E+01
 Spin= Alpha
 Occup=    0.763077
   1     -0.001435292039
   2      0.005042342915
   3     -0.001843906072
   4      0.000416527982
   5      0.201198949844
   6      0.000000000002
   7     -0.000000000001
   8      0.534022727001
   9      0.000000000006
  10     -0.000000000003
  11      0.030152508560
  12      0.000000000000
  13     -0.000000000000
  14     -0.005054553829
  15     -0.000000000000
  16      0.000000000000
  17      0.000569554826
  18      0.000000000000
  19      0.000002176287
  20     -0.000991851260
  21     -0.000000000000
  22     -0.000124611496
  23      0.000174788500
  24     -0.004793757349
  25      0.000949971397
  26     -0.000000000000
  27      0.000000000000
  28      0.003720901211
  29      0.000000000000
  30     -0.000000000000
  31     -0.000839499388
  32      0.000000000000
  33     -0.000001573559
  34      0.001457719406
  35     -0.000000000000
  36      0.000123495271
  37     -0.001479141399
  38      0.006077413032
  39     -0.000900217470
  40     -0.000000000000
  41     -0.000000000000
  42      0.001856279180
  43     -0.000000000000
  44      0.000000000000
  45      0.000141993824
  46      0.000000000000
  47      0.000000190118
  48     -0.000246376164
  49     -0.000000000000
 Ene=  -0.60644243236954E+01
 Spin= Alpha
 Occup=    0.335315
   1     -0.000514234581
   2      0.001806943843
   3     -0.000660287355
   4      0.000145753279
   5      0.065193821590
   6      0.000000000001
   7     -0.000000000000
   8      0.192320621770
   9      0.000000000002
  10     -0.000000000001
  11      0.010834016562
  12      0.000000000000
  13     -0.000000000000
  14     -0.001806500096
  15     -0.000000000000
  16      0.000000000000
  17      0.000204439174
  18      0.000000000000
  19      0.000000588154
  20     -0.000355934228
  21     -0.000000000000
  22     -0.000043913202
  23      0.000062118567
  24     -0.001712849116
  25      0.000340752667
  26     -0.000000000000
  27      0.000000000000
  28      0.001333785671
  29      0.000000000000
  30     -0.000000000000
  31     -0.000299548768
  32      0.000000000000
  33     -0.000000572877
  34      0.000520153800
  35     -0.000000000000
  36      0.000044050169
  37     -0.000528027630
  38      0.002174878066
  39     -0.000320890481
  40     -0.000000000000
  41     -0.000000000000
  42      0.000664026549
  43     -0.000000000000
  44      0.000000000000
  45      0.000050593736
  46      0.000000000000
  47      0.000000073096
  48     -0.000087790670
  49     -0.000000000000
 Ene=  -0.60267692470618E+01
 Spin= Alpha
 Occup=    0.934205
   1      0.001683574416
   2     -0.005921604037
   3      0.002149063927
   4     -0.000405315848
   5     -0.072280475435
   6     -0.000000000001
   7      0.000000000001
   8     -0.649574121358
   9     -0.000000000015
  10      0.000000000004
  11     -0.036091085843
  12     -0.000000000001
  13      0.000000000000
  14      0.005816016928
  15      0.000000000000
  16     -0.000000000000
  17     -0.000677033510
  18     -0.000000000000
  19     -0.000002331462
  20      0.001177843981
  21      0.000000000000
  22      0.000127506067
  23     -0.000189975769
  24      0.005506995670
  25     -0.001118523899
  26      0.000000000000
  27     -0.000000000000
  28     -0.004376038531
  29     -0.000000000000
  30      0.000000000000
  31      0.000954411549
  32     -0.000000000000
  33      0.000001909985
  34     -0.001657546377
  35      0.000000000000
  36     -0.000139984247
  37      0.001687366472
  38     -0.007061501843
  39      0.001015167201
  40      0.000000000000
  41     -0.000000000000
  42     -0.002150681631
  43      0.000000000000
  44     -0.000000000000
  45     -0.000159718395
  46     -0.000000000000
  47     -0.000000231662
  48      0.000277197065
  49      0.000000000000
 Ene=  -0.60186467526604E+01
 Spin= Alpha
 Occup=    0.256305
   1      0.000653259839
   2     -0.002297099373
   3      0.000829794073
   4     -0.000151117990
   5     -0.017395495589
   6     -0.000000000000
   7      0.000000000001
   8     -0.253454909587
   9     -0.000000000001
  10      0.000000000007
  11     -0.014045050906
  12     -0.000000000000
  13      0.000000000000
  14      0.002245539021
  15      0.000000000000
  16     -0.000000000000
  17     -0.000263390674
  18     -0.000000000000
  19     -0.000001096221
  20      0.000458384482
  21      0.000000000000
  22      0.000047593528
  23     -0.000071115349
  24      0.002126422719
  25     -0.000431718748
  26      0.000000000000
  27     -0.000000000000
  28     -0.001696926105
  29     -0.000000000000
  30      0.000000000000
  31      0.000367713816
  32     -0.000000000000
  33      0.000000743090
  34     -0.000638646945
  35      0.000000000000
  36     -0.000053884169
  37      0.000650539423
  38     -0.002732322393
  39      0.000390237265
  40     -0.000000000000
  41      0.000000000000
  42     -0.000831820852
  43      0.000000000000
  44     -0.000000000000
  45     -0.000061412559
  46     -0.000000000000
  47     -0.000000085856
  48      0.000106577746
  49      0.000000000000
 Ene=  -0.60151816340406E+01
 Spin= Alpha
 Occup=    0.193753
   1     -0.000939545484
   2      0.003302261466
   3     -0.001187722657
   4      0.000213473116
   5      0.019976557549
   6      0.000000000002
   7     -0.000000000004
   8      0.365098090437
   9      0.000000000024
  10     -0.000000000031
  11      0.020212691335
  12      0.000000000001
  13     -0.000000000002
  14     -0.003219805067
  15     -0.000000000000
  16      0.000000000000
  17      0.000379300555
  18      0.000000000000
  19      0.000001442872
  20     -0.000660401795
  21     -0.000000000000
  22     -0.000066769695
  23      0.000099163809
  24     -0.003050008624
  25      0.000616876879
  26     -0.000000000000
  27      0.000000000000
  28      0.002438035978
  29      0.000000000000
  30     -0.000000000000
  31     -0.000526862162
  32      0.000000000000
  33     -0.000001081360
  34      0.000915082266
  35     -0.000000000000
  36      0.000077163319
  37     -0.000932367278
  38      0.003922273636
  39     -0.000558323059
  40      0.000000000000
  41     -0.000000000000
  42      0.001193985948
  43     -0.000000000000
  44      0.000000000000
  45      0.000087917967
  46      0.000000000000
  47      0.000000127777
  48     -0.000152572666
  49     -0.000000000000
 Ene=  -0.60141210394383E+01
 Spin= Alpha
 Occup=    0.517345
   1     -0.000022114067
   2      0.000078801532
   3     -0.000030919609
   4      0.000005052409
   5     -0.001022296875
   6     -0.000000000001
   7      0.000000000001
   8      0.008877134303
   9     -0.000000000010
  10      0.000000000011
  11      0.000487698840
  12     -0.000000000001
  13      0.000000000001
  14     -0.000078399980
  15      0.000000000000
  16     -0.000000000000
  17      0.000008877354
  18     -0.000000000000
  19      0.000000138889
  20     -0.000015262400
  21      0.000000000000
  22     -0.000002045994
  23      0.000003755023
  24     -0.000073432055
  25      0.000016974913
  26      0.000000000000
  27     -0.000000000000
  28      0.000059104287
  29     -0.000000000000
  30      0.000000000000
  31     -0.000012741931
  32     -0.000000000000
  33     -0.000000030145
  34      0.000022122891
  35      0.000000000000
  36      0.000001878396
  37     -0.000022545678
  38      0.000094749912
  39     -0.000013744068
  40      0.000000000000
  41      0.000000000000
  42      0.000028732336
  43      0.000000000000
  44     -0.000000000000
  45      0.000002122171
  46     -0.000000000000
  47     -0.000000004858
  48     -0.000003686970
  49      0.000000000000
 Ene=  -0.98072938847313E+00
 Spin= Alpha
 Occup=    1.000000
   1     -0.014486235365
   2      0.086232389002
   3     -0.125942786287
   4     -0.059920464127
   5     -0.020794377303
   6      0.000000000000
   7      0.000000000000
   8     -0.021600400573
   9     -0.000000000000
  10     -0.000000000000
  11      0.036060867316
  12      0.000000000000
  13      0.000000000000
  14      0.032693026650
  15     -0.000000000000
  16      0.000000000000
  17      0.008959827043
  18     -0.000000000000
  19     -0.002123089050
  20     -0.010561642902
  21     -0.000000000000
  22      0.199695691733
  23     -0.384861910241
  24     -0.066074363310
  25      0.269971047220
  26      0.000000000000
  27      0.000000000000
  28      0.035152992987
  29      0.000000000000
  30      0.000000000000
  31      0.013937748225
  32     -0.000000000000
  33     -0.000488090867
  34     -0.023001286480
  35     -0.000000000000
  36      0.230459946000
  37     -0.454037571767
  38     -0.139979006933
  39     -0.293027293978
  40      0.000000000000
  41     -0.000000000000
  42     -0.019355569948
  43      0.000000000000
  44     -0.000000000000
  45      0.011184069860
  46      0.000000000000
  47     -0.002403543524
  48     -0.013758779869
  49     -0.000000000000
 Ene=  -0.96553381611396E+00
 Spin= Alpha
 Occup=    0.000000
   1     -0.000000143780
   2      0.000000841360
   3     -0.000001204682
   4     -0.000000560810
   5     -0.000000302187
   6     -0.000000000000
   7      0.000000000001
   8     -0.000000203687
   9      0.000000000000
  10     -0.000000000000
  11      0.000000354920
  12     -0.000000000000
  13     -0.000000000000
  14      0.000000290197
  15     -0.000000000000
  16     -0.000000000000
  17      0.000000050533
  18      0.000000000000
  19     -0.000000075804
  20     -0.000000117164
  21      0.000000000000
  22      0.000001628249
  23     -0.000003117693
  24     -0.000000393920
  25      0.000001897887
  26      0.000000000000
  27     -0.000000000000
  28      0.000000142406
  29      0.000000000000
  30      0.000000000000
  31      0.000000123783
  32      0.000000000000
  33      0.000000000841
  34     -0.000000181619
  35      0.000000000000
  36      0.000001724089
  37     -0.000003246539
  38     -0.000001440796
  39     -0.000002224855
  40      0.000000000000
  41      0.000000000000
  42     -0.000000292970
  43      0.000000000000
  44     -0.000000000000
  45      0.000000057469
  46      0.000000000000
  47     -0.000000130535
  48     -0.000000103231
  49      0.000000000000
 Ene=  -0.85107367784573E+00
 Spin= Alpha
 Occup=    1.000000
   1      0.070312029670
   2     -0.422814319764
   3      0.640225859018
   4      0.250244657630
   5      0.073352764147
   6     -0.000000000001
   7     -0.000000000000
   8      0.059570661425
   9      0.000000000000
  10      0.000000000000
  11     -0.106731067281
  12     -0.000000000000
  13      0.000000000000
  14     -0.062073157804
  15     -0.000000000000
  16      0.000000000000
  17     -0.025866413254
  18      0.000000000000
  19      0.011389930212
  20      0.018206316238
  21      0.000000000000
  22     -0.063751862895
  23      0.135722691633
  24      0.003113193050
  25      0.383863047575
  26     -0.000000000000
  27     -0.000000000000
  28      0.055273435315
  29     -0.000000000000
  30     -0.000000000000
  31     -0.006079596859
  32     -0.000000000000
  33      0.000061616610
  34      0.010386543091
  35     -0.000000000000
  36      0.086747583060
  37     -0.180157136384
  38     -0.034663929321
  39     -0.092420640138
  40     -0.000000000000
  41     -0.000000000000
  42      0.005053591154
  43      0.000000000000
  44     -0.000000000000
  45      0.003517942732
  46      0.000000000000
  47     -0.000901963023
  48     -0.003986846659
  49     -0.000000000000
 Ene=  -0.82273928264309E+00
 Spin= Alpha
 Occup=    0.000000
   1     -0.000000600677
   2      0.000003586852
   3     -0.000005033694
   4     -0.000003123623
   5     -0.000002707852
   6      0.000000000000
   7      0.000000000003
   8     -0.000000450412
   9      0.000000000000
  10     -0.000000000000
  11      0.000001069956
  12     -0.000000000000
  13     -0.000000000000
  14      0.000000967017
  15     -0.000000000000
  16     -0.000000000000
  17      0.000000158456
  18      0.000000000000
  19     -0.000000497395
  20     -0.000000148938
  21      0.000000000000
  22      0.000000562505
  23     -0.000001293962
  24      0.000000194265
  25     -0.000003723678
  26     -0.000000000000
  27      0.000000000000
  28     -0.000000118196
  29      0.000000000000
  30     -0.000000000000
  31      0.000000046653
  32     -0.000000000000
  33      0.000000039986
  34     -0.000000110580
  35     -0.000000000000
  36     -0.000000876722
  37      0.000001733764
  38      0.000000845267
  39      0.000000954142
  40     -0.000000000000
  41     -0.000000000000
  42      0.000000097665
  43     -0.000000000000
  44      0.000000000000
  45     -0.000000046530
  46     -0.000000000000
  47      0.000000068763
  48      0.000000011126
  49     -0.000000000000
 Ene=  -0.52960999009070E+00
 Spin= Alpha
 Occup=    0.999983
   1     -0.041174915470
   2      0.254945742360
   3     -0.385850501196
   4     -0.374909933926
   5      0.331060527802
   6      0.000000000000
   7     -0.000000000000
   8      0.165036018252
   9     -0.000000000000
  10      0.000000000000
  11     -0.322622824500
  12      0.000000000000
  13      0.000000000000
  14     -0.254482927408
  15      0.000000000000
  16      0.000000000000
  17     -0.019361512203
  18     -0.000000000000
  19     -0.010368600600
  20      0.057745144494
  21      0.000000000000
  22     -0.146417603564
  23      0.323248510737
  24      0.128228765875
  25      0.345810571789
  26     -0.000000000000
  27     -0.000000000000
  28      0.160849543890
  29     -0.000000000000
  30     -0.000000000000
  31     -0.005738383345
  32     -0.000000000000
  33      0.000079852260
  34      0.009752921274
  35     -0.000000000000
  36      0.081304566961
  37     -0.184311200386
  38     -0.032041856079
  39      0.080152963298
  40     -0.000000000000
  41     -0.000000000000
  42      0.063642461098
  43     -0.000000000000
  44     -0.000000000000
  45     -0.001265609859
  46      0.000000000000
  47     -0.000911153240
  48      0.004319693655
  49     -0.000000000000
 Ene=  -0.51392688277466E+00
 Spin= Alpha
 Occup=    0.000029
   1      0.000001478447
   2     -0.000009204560
   3      0.000014174941
   4      0.000013753117
   5      0.000023845024
   6      0.000000000000
   7      0.000000000001
   8     -0.000008230491
   9      0.000000000000
  10     -0.000000000000
  11      0.000010343084
  12     -0.000000000000
  13     -0.000000000000
  14      0.000008969068
  15     -0.000000000000
  16     -0.000000000000
  17      0.000000600109
  18      0.000000000000
  19     -0.000000030865
  20     -0.000002304018
  21      0.000000000000
  22      0.000006011514
  23     -0.000013272926
  24     -0.000005683881
  25     -0.000012759156
  26     -0.000000000000
  27     -0.000000000000
  28     -0.000006155787
  29     -0.000000000000
  30     -0.000000000000
  31      0.000000165319
  32     -0.000000000000
  33     -0.000000049660
  34     -0.000000313435
  35     -0.000000000000
  36     -0.000003581163
  37      0.000008077565
  38      0.000002517888
  39     -0.000005231167
  40     -0.000000000000
  41     -0.000000000000
  42     -0.000003011114
  43     -0.000000000000
  44     -0.000000000000
  45      0.000000076791
  46     -0.000000000000
  47      0.000000003438
  48     -0.000000272595
  49     -0.000000000000
 Ene=  -0.45328570761941E+00
 Spin= Alpha
 Occup=    0.999713
   1     -0.000179626376
   2      0.001120297748
   3     -0.001730121297
   4     -0.002227848397
   5     -0.021978751013
   6     -0.000000000000
   7      0.000000000000
   8      0.001757285736
   9     -0.000000000000
  10     -0.000000000000
  11      0.000225207046
  12      0.000000000000
  13      0.000000000000
  14     -0.000006716813
  15      0.000000000000
  16      0.000000000000
  17     -0.000111772520
  18     -0.000000000000
  19     -0.000047275818
  20      0.000300023029
  21     -0.000000000000
  22     -0.001515811303
  23      0.003366003844
  24      0.001714704124
  25     -0.000180325776
  26      0.000000000000
  27      0.000000000000
  28      0.001155776050
  29      0.000000000000
  30      0.000000000000
  31      0.000027673529
  32     -0.000000000000
  33      0.000001769942
  34     -0.000052343763
  35     -0.000000000000
  36      0.001573714605
  37     -0.003366413984
  38     -0.003031633404
  39      0.005925512459
  40      0.000000000000
  41      0.000000000000
  42      0.002022120409
  43      0.000000000000
  44      0.000000000000
  45     -0.000118116037
  46      0.000000000000
  47     -0.000019690751
  48      0.000250940442
  49      0.000000000000
 Ene=  -0.43413207196045E+00
 Spin= Alpha
 Occup=    0.999688
   1      0.000028563710
   2     -0.000178902385
   3      0.000316292780
   4      0.000418121099
   5      0.007407488659
   6     -0.000000000000
   7      0.000000000000
   8     -0.000271673336
   9      0.000000000000
  10      0.000000000000
  11     -0.000624262718
  12     -0.000000000000
  13     -0.000000000000
  14     -0.000554024549
  15     -0.000000000000
  16     -0.000000000000
  17      0.000007035013
  18      0.000000000000