[Molden Format]
[Title]
generated by TRESC, real part2 of MOs of job SCN
 
[Atoms] AU
 S   1  16  -17.2278192557   -6.3208121784    0.0000000000
 C   2   6  -20.3490796710   -6.3208121784    0.0000000000
 N   3   7  -22.5353603590   -6.3208121784    0.0000000000
[GTO]
  1 0
 s  5 1.0
    10081.3659290000        0.0067330718
     1468.8676987000        0.0423201277
      327.2465016600        0.1866835343
       90.5285201140        0.4849802687
       27.5058308280        0.4517376429
 s  3 1.0
       46.3853988360       -0.0950589434
        5.0228188449        0.5843701906
        2.0306206045        0.5413909427
 s  1 1.0
        0.3606627882        1.0000000000
 s  1 1.0
        0.1371410729        1.0000000000
 p  5 1.0
      604.8788900300        0.0002353489
      140.0897861900        0.0017386166
       44.4994657800        0.0077865988
       16.4748871580        0.0220140918
        6.5229645048        0.0378945448
 p  5 1.0
      270.9504306400        0.0092081513
       62.5377853170        0.0653131413
       19.3546142200        0.2445470601
        6.7163477485        0.4820783852
        2.4098646724        0.3917477785
 p  1 1.0
        0.6191509478        1.0000000000
 p  1 1.0
        0.1701457548        1.0000000000
 d  1 1.0
        0.5500000000        1.0000000000
 
  2 0
 s  5 1.0
     1231.7975026000        0.0058423196
      185.5974766200        0.0415113222
       42.0875016200        0.1832849990
       11.6300369400        0.4683526005
        3.5840894779        0.4430601820
 s  1 1.0
        0.4029351893        1.0000000000
 s  1 1.0
        0.1309419451        1.0000000000
 p  3 1.0
        9.4821246358        0.0381720490
        2.0121097169        0.2099973699
        0.5481253660        0.5104097902
 p  1 1.0
        0.1527756940        1.0000000000
 d  1 1.0
        0.8000000000        1.0000000000
 
  3 0
 s  5 1.0
     1706.0150550000        0.0058639453
      255.9938356800        0.0413450288
       58.1565771970        0.1820914202
       16.1430707430        0.4678591214
        4.9963209539        0.4434151324
 s  1 1.0
        0.5882550288        1.0000000000
 s  1 1.0
        0.1877013255        1.0000000000
 p  3 1.0
       13.5897862110        0.0400190920
        2.9274822154        0.2175789499
        0.7994670210        0.5117738303
 p  1 1.0
        0.2195247995        1.0000000000
 d  1 1.0
        1.0000000000        1.0000000000
 
[5D]
[7F]
[9G]
[MO]
 Ene=   0.60655187495964E+00
 Spin= Alpha
 Occup=    0.000000
   1     -0.000075019051
   2      0.000497447396
   3     -0.003067465502
   4      0.048841736083
   5     -0.023527394205
   6      0.000000000001
   7     -0.000000000002
   8      0.005851256588
   9     -0.000000000000
  10      0.000000000001
  11     -0.014761311788
  12      0.000000000001
  13     -0.000000000003
  14     -0.014300438297
  15     -0.000000000001
  16      0.000000000002
  17     -0.008766407282
  18      0.000000000003
  19      0.008957585554
  20      0.003357189823
  21     -0.000000000001
  22      0.002013021499
  23     -0.001382252600
  24      0.004303962081
  25      0.015938075545
  26     -0.000000000000
  27      0.000000000000
  28     -0.076779795429
  29     -0.000000000000
  30      0.000000000000
  31     -0.002122344230
  32     -0.000000000000
  33      0.000465156926
  34      0.003068019147
  35      0.000000000000
  36      0.000404331963
  37     -0.002691813128
  38     -0.051543084618
  39      0.010909860010
  40      0.000000000000
  41     -0.000000000001
  42     -0.010720798104
  43     -0.000000000000
  44      0.000000000000
  45      0.001065661601
  46      0.000000000000
  47      0.000044119664
  48     -0.001931791202
  49     -0.000000000000
 Ene=   0.61409236621866E+00
 Spin= Alpha
 Occup=    0.000000
   1      0.000125672602
   2     -0.000869671459
   3      0.005832087026
   4     -0.069719185125
   5      0.042779794401
   6     -0.000000000000
   7      0.000000000000
   8     -0.007954084676
   9      0.000000000000
  10     -0.000000000000
  11      0.016955940542
  12      0.000000000000
  13      0.000000000000
  14      0.024069197739
  15      0.000000000000
  16     -0.000000000000
  17      0.010194017830
  18     -0.000000000000
  19     -0.004981888086
  20     -0.004919701969
  21     -0.000000000000
  22     -0.002441274977
  23      0.000898290571
  24      0.000462030870
  25     -0.021555899409
  26      0.000000000000
  27     -0.000000000000
  28      0.103120031323
  29     -0.000000000000
  30     -0.000000000000
  31      0.002623051342
  32      0.000000000000
  33     -0.000261866627
  34     -0.003870933129
  35      0.000000000000
  36     -0.000332473229
  37      0.002681755318
  38      0.067614517213
  39     -0.014002073596
  40      0.000000000000
  41      0.000000000000
  42      0.013313931593
  43      0.000000000000
  44     -0.000000000000
  45     -0.001377934014
  46     -0.000000000000
  47     -0.000045356884
  48      0.002493440145
  49     -0.000000000000
 Ene=   0.62317976820253E+00
 Spin= Alpha
 Occup=    0.000000
   1      0.000038788399
   2     -0.000275257701
   3      0.001939012376
   4     -0.019172852803
   5      0.013514908399
   6      0.000000000000
   7     -0.000000000000
   8     -0.002021737741
   9     -0.000000000000
  10      0.000000000000
  11      0.003550675139
  12      0.000000000000
  13     -0.000000000000
  14      0.007602025344
  15     -0.000000000000
  16      0.000000000000
  17      0.002104632957
  18      0.000000000000
  19      0.000019362640
  20     -0.001403988521
  21     -0.000000000000
  22     -0.000536563535
  23     -0.000144263707
  24      0.001898480948
  25     -0.005628443492
  26     -0.000000000000
  27      0.000000000000
  28      0.026754502719
  29     -0.000000000000
  30      0.000000000000
  31      0.000604650041
  32     -0.000000000000
  33      0.000003880630
  34     -0.000925844856
  35      0.000000000000
  36     -0.000037766156
  37      0.000475210609
  38      0.017076504220
  39     -0.003401751293
  40      0.000000000000
  41     -0.000000000000
  42      0.003168762728
  43      0.000000000000
  44      0.000000000000
  45     -0.000339980520
  46      0.000000000000
  47     -0.000010554978
  48      0.000614000392
  49     -0.000000000000
 Ene=   0.63996757817451E+00
 Spin= Alpha
 Occup=    0.000000
   1     -0.000003309170
   2      0.000020599925
   3     -0.000087019100
   4      0.001174848098
   5     -0.000113913964
   6      0.000000000000
   7      0.000000000000
   8      0.000039517353
   9     -0.000000000000
  10     -0.000000000000
  11     -0.000127999179
  12      0.000000000000
  13      0.000000000000
  14     -0.000515634181
  15     -0.000000000000
  16     -0.000000000000
  17     -0.000794277440
  18     -0.000000000000
  19      0.000807838516
  20     -0.000463860890
  21     -0.000000000000
  22     -0.000090381163
  23      0.000754182485
  24     -0.000302761779
  25      0.000046561147
  26     -0.000000000000
  27     -0.000000000000
  28     -0.001698405222
  29      0.000000000000
  30      0.000000000000
  31     -0.000053834805
  32      0.000000000000
  33      0.000040555913
  34      0.000001273348
  35      0.000000000000
  36      0.000091459661
  37     -0.000383864585
  38     -0.001057546858
  39      0.000243624252
  40      0.000000000000
  41      0.000000000000
  42     -0.000754712438
  43     -0.000000000000
  44     -0.000000000000
  45     -0.000000343697
  46     -0.000000000000
  47      0.000000690193
  48     -0.000000688582
  49     -0.000000000000
 Ene=   0.64487624832201E+00
 Spin= Alpha
 Occup=    0.000000
   1     -0.000000229735
   2      0.000001778742
   3     -0.000007586976
   4      0.000008163784
   5     -0.000035514058
   6      0.000000000000
   7      0.000000000000
   8      0.000003772514
   9     -0.000000000000
  10      0.000000000000
  11     -0.000003458573
  12      0.000000000000
  13     -0.000000000000
  14      0.000000091814
  15     -0.000000000000
  16      0.000000000000
  17      0.000622249090
  18      0.000000000000
  19      0.000855319113
  20      0.000364455083
  21     -0.000000000000
  22      0.000004712621
  23     -0.000030579014
  24     -0.000002357300
  25      0.000018350796
  26     -0.000000000000
  27      0.000000000000
  28     -0.000000122853
  29      0.000000000000
  30     -0.000000000000
  31      0.000030868034
  32     -0.000000000000
  33      0.000043404130
  34      0.000019393131
  35      0.000000000000
  36     -0.000004356944
  37      0.000017005862
  38      0.000003547439
  39     -0.000004874493
  40      0.000000000000
  41      0.000000000000
  42      0.000030916531
  43     -0.000000000000
  44     -0.000000000000
  45      0.000002232511
  46      0.000000000000
  47      0.000001967404
  48     -0.000001060197
  49     -0.000000000000
 Ene=   0.64643950639859E+00
 Spin= Alpha
 Occup=    0.000000
   1      0.000117324755
   2     -0.000915400919
   3     -0.094694876500
   4      1.754712620857
   5     -0.053839672202
   6     -0.000000000001
   7      0.000000000000
   8      0.013897977025
   9     -0.000000000001
  10     -0.000000000000
  11     -0.039627235718
  12      0.000000000003
  13      0.000000000000
  14     -0.945830508601
  15     -0.000000000003
  16     -0.000000000000
  17      0.047291970460
  18      0.000000000000
  19     -0.026823569348
  20     -0.019282306313
  21      0.000000000001
  22     -0.198170466980
  23      1.573257756594
  24     -0.478465150504
  25     -0.373698500109
  26     -0.000000000001
  27      0.000000000000
  28     -2.424795262655
  29      0.000000000000
  30      0.000000000000
  31     -0.003579271045
  32     -0.000000000000
  33     -0.002108354370
  34      0.011122568148
  35      0.000000000000
  36      0.198288745242
  37     -0.792571920246
  38     -1.630576023639
  39      0.487894480794
  40     -0.000000000003
  41     -0.000000000000
  42     -1.707726496632
  43      0.000000000003
  44      0.000000000000
  45     -0.017962047960
  46      0.000000000000
  47     -0.002860515273
  48      0.037790324818
  49     -0.000000000000
 Ene=   0.65265473537216E+00
 Spin= Alpha
 Occup=    0.000000
   1      0.000000022340
   2     -0.000000183409
   3      0.000001512579
   4     -0.000015027940
   5      0.000001341724
   6      0.000000000000
   7      0.000000000000
   8     -0.000000200298
   9     -0.000000000000
  10     -0.000000000000
  11      0.000000382375
  12      0.000000000000
  13      0.000000000000
  14      0.000007789059
  15     -0.000000000000
  16     -0.000000000000
  17     -0.000067265159
  18     -0.000000000000
  19     -0.000092495009
  20     -0.000038545497
  21      0.000000000000
  22      0.000001470801
  23     -0.000011943706
  24      0.000003448666
  25      0.000002534050
  26     -0.000000000000
  27     -0.000000000000
  28      0.000020122062
  29      0.000000000000
  30     -0.000000000000
  31     -0.000003328794
  32      0.000000000000
  33     -0.000004616042
  34     -0.000002030967
  35     -0.000000000000
  36     -0.000001435743
  37      0.000005472294
  38      0.000014304033
  39     -0.000003731189
  40     -0.000000000000
  41     -0.000000000000
  42      0.000013203659
  43      0.000000000000
  44      0.000000000000
  45      0.000000111116
  46     -0.000000000000
  47     -0.000000019222
  48     -0.000000246237
  49      0.000000000000
 Ene=   0.70792017339267E+00
 Spin= Alpha
 Occup=    0.000000
   1     -0.000264257554
   2      0.001939410344
   3     -0.021643076122
   4      0.201106877327
   5     -0.035698018501
   6      0.000000000001
   7      0.000000000001
   8     -0.002276485103
   9     -0.000000000001
  10     -0.000000000000
  11      0.017731716209
  12      0.000000000002
  13      0.000000000001
  14     -0.126286197699
  15     -0.000000000002
  16     -0.000000000001
  17      0.000032334748
  18      0.000000000000
  19     -0.000749656108
  20      0.001501066025
  21      0.000000000001
  22     -0.005688377977
  23      0.042814508023
  24     -0.109438634525
  25      0.043772997677
  26     -0.000000000000
  27     -0.000000000000
  28     -0.231827944394
  29      0.000000000001
  30      0.000000000000
  31      0.000448284788
  32      0.000000000000
  33     -0.000054898027
  34     -0.000661083817
  35      0.000000000000
  36     -0.000088474649
  37      0.000019097506
  38     -0.124754220609
  39     -0.006062102392
  40     -0.000000000002
  41     -0.000000000001
  42     -0.006547757611
  43      0.000000000001
  44      0.000000000000
  45      0.001127328200
  46      0.000000000000
  47      0.000039323360
  48     -0.002044933012
  49      0.000000000000
 Ene=   0.72243186816506E+00
 Spin= Alpha
 Occup=    0.000000
   1     -0.004144688442
   2      0.030379735724
   3     -0.435449178797
   4      4.521174587415
   5      0.178003266194
   6      0.000000000002
   7      0.000000000000
   8     -0.166996919448
   9     -0.000000000000
  10      0.000000000000
  11      0.536847251154
  12      0.000000000000
  13     -0.000000000000
  14     -2.942733052453
  15     -0.000000000000
  16      0.000000000000
  17      0.056903264579
  18     -0.000000000000
  19     -0.025584286997
  20     -0.038825602516
  21      0.000000000000
  22     -0.165332700317
  23      1.087530819244
  24     -2.714346680749
  25      0.996370904200
  26      0.000000000000
  27      0.000000000000
  28     -5.181567051524
  29      0.000000000000
  30     -0.000000000000
  31      0.035422196708
  32     -0.000000000000
  33     -0.001852645710
  34     -0.057026759337
  35     -0.000000000000
  36     -0.006305897201
  37      0.028639956199
  38     -2.715541698364
  39     -0.339749938504
  40      0.000000000000
  41      0.000000000000
  42      0.011230057197
  43     -0.000000000000
  44     -0.000000000000
  45      0.018588443803
  46      0.000000000000
  47      0.000783447059
  48     -0.034024769861
  49      0.000000000000
 Ene=   0.72628425148500E+00
 Spin= Alpha
 Occup=    0.000000
   1     -0.000016337792
   2      0.000119583984
   3     -0.001912388831
   4      0.020681586153
   5      0.002173047609
   6     -0.000000000002
   7      0.000000000001
   8     -0.000914320988
   9      0.000000000001
  10     -0.000000000002
  11      0.002610409979
  12     -0.000000000004
  13      0.000000000006
  14     -0.013573278550
  15      0.000000000004
  16     -0.000000000006
  17      0.000340417466
  18      0.000000000003
  19     -0.000110301010
  20     -0.000273041897
  21     -0.000000000002
  22     -0.000806787862
  23      0.005152264122
  24     -0.012724886783
  25      0.004573804115
  26      0.000000000000
  27     -0.000000000000
  28     -0.023700577243
  29     -0.000000000001
  30      0.000000000002
  31      0.000195383411
  32     -0.000000000000
  33     -0.000008320182
  34     -0.000315656847
  35     -0.000000000000
  36     -0.000031725029
  37      0.000156195236
  38     -0.012336762597
  39     -0.001825976064
  40      0.000000000003
  41     -0.000000000005
  42      0.000248068229
  43     -0.000000000002
  44      0.000000000003
  45      0.000076282649
  46      0.000000000000
  47      0.000003421725
  48     -0.000139963760
  49     -0.000000000000
 Ene=   0.73444749769108E+00
 Spin= Alpha
 Occup=    0.000000
   1      0.000035898271
   2     -0.000260367134
   3      0.006161420254
   4     -0.074370922838
   5     -0.019259640708
   6     -0.000000000001
   7      0.000000000002
   8      0.004499517748
   9      0.000000000000
  10     -0.000000000001
  11     -0.010494301643
  12     -0.000000000001
  13      0.000000000004
  14      0.049596995965
  15      0.000000000001
  16     -0.000000000004
  17     -0.001806431227
  18      0.000000000002
  19      0.000386911654
  20      0.001818100751
  21     -0.000000000001
  22      0.003320048847
  23     -0.020044020914
  24      0.048163319022
  25     -0.016569265958
  26      0.000000000000
  27     -0.000000000000
  28      0.085399473424
  29     -0.000000000000
  30      0.000000000001
  31     -0.000968322241
  32      0.000000000000
  33      0.000028776074
  34      0.001581549192
  35     -0.000000000000
  36      0.000120761676
  37     -0.000691679680
  38      0.043805770261
  39      0.008807442817
  40      0.000000000001
  41     -0.000000000003
  42     -0.002446375922
  43     -0.000000000001
  44      0.000000000002
  45     -0.000202713535
  46      0.000000000000
  47     -0.000011272026
  48      0.000376384280
  49     -0.000000000000
 Ene=   0.74115870213894E+00
 Spin= Alpha
 Occup=    0.000000
   1     -0.000018683121
   2      0.000130484165
   3     -0.007566684496
   4      0.103352425585
   5      0.042598253749
   6     -0.000000000000
   7     -0.000000000000
   8     -0.007772399801
   9      0.000000000000
  10      0.000000000000
  11      0.015632273381
  12     -0.000000000000
  13     -0.000000000000
  14     -0.069686463113
  15      0.000000000000
  16      0.000000000000
  17      0.003091372510
  18     -0.000000000000
  19     -0.000772199253
  20     -0.003640630661
  21     -0.000000000000
  22     -0.005154553038
  23      0.029921981439
  24     -0.069631584145
  25      0.022985080446
  26      0.000000000000
  27      0.000000000000
  28     -0.119220604513
  29     -0.000000000000
  30     -0.000000000000
  31      0.001661721431
  32     -0.000000000000
  33     -0.000056936112
  34     -0.002752031035
  35     -0.000000000000
  36     -0.000131985512
  37      0.000945698028
  38     -0.060526172212
  39     -0.015058553034
  40      0.000000000000
  41      0.000000000000
  42      0.005115156172
  43     -0.000000000000
  44     -0.000000000000
  45      0.000189166444
  46      0.000000000000
  47      0.000012434788
  48     -0.000355891403
  49      0.000000000000
 Ene=   0.74989239591462E+00
 Spin= Alpha
 Occup=    0.000000
   1     -0.000007136012
   2      0.000054876802
   3      0.001374592177
   4     -0.023855755703
   5     -0.014981285297
   6      0.000000000000
   7     -0.000000000000
   8      0.002276141496
   9     -0.000000000000
  10      0.000000000000
  11     -0.003890194658
  12      0.000000000000
  13     -0.000000000000
  14      0.016276326186
  15     -0.000000000000
  16      0.000000000000
  17     -0.000949091518
  18     -0.000000000000
  19      0.000291579431
  20      0.001210416561
  21      0.000000000000
  22      0.001374615077
  23     -0.007629344527
  24      0.016941578377
  25     -0.005301459554
  26     -0.000000000000
  27     -0.000000000000
  28      0.027790634207
  29      0.000000000000
  30     -0.000000000000
  31     -0.000491250239
  32     -0.000000000000
  33      0.000021877823
  34      0.000818508455
  35      0.000000000000
  36      0.000013097535
  37     -0.000186299911
  38      0.013910848132
  39      0.004453873478
  40     -0.000000000000
  41      0.000000000000
  42     -0.001758968625
  43      0.000000000000
  44     -0.000000000000
  45     -0.000013007605
  46     -0.000000000000
  47     -0.000002802398
  48      0.000026815500
  49     -0.000000000000
 Ene=   0.86285752453103E+00
 Spin= Alpha
 Occup=    0.000000
   1     -0.000166592940
   2      0.001245750946
   3     -0.006775484920
   4      0.012092036980
   5     -0.012834476908
   6     -0.000000000000
   7     -0.000000000000
   8     -0.001029631917
   9      0.000000000000
  10      0.000000000000
  11      0.007869754255
  12     -0.000000000000
  13     -0.000000000000
  14     -0.012595352118
  15      0.000000000000
  16      0.000000000000
  17     -0.002466435649
  18     -0.000000000000
  19      0.000198814517
  20      0.003743926597
  21     -0.000000000000
  22      0.001422090455
  23     -0.005853017981
  24     -0.003098515626
  25      0.004508990696
  26      0.000000000000
  27      0.000000000000
  28     -0.005146407493
  29     -0.000000000000
  30     -0.000000000000
  31     -0.000521412690
  32      0.000000000000
  33      0.000020213917
  34      0.000843643157
  35      0.000000000000
  36     -0.000892109387
  37      0.004035951201
  38     -0.004014086609
  39      0.010107893143
  40     -0.000000000000
  41     -0.000000000000
  42     -0.004687004943
  43      0.000000000000
  44      0.000000000000
  45      0.000294062350
  46     -0.000000000000
  47      0.000016727059
  48     -0.000544450842
  49     -0.000000000000
 Ene=   0.87877727703716E+00
 Spin= Alpha
 Occup=    0.000000
   1     -0.000090731812
   2      0.000680122621
   3     -0.003799913090
   4      0.007592530831
   5     -0.004475539318
   6     -0.000000000000
   7      0.000000000000
   8     -0.000848845483
   9      0.000000000000
  10     -0.000000000000
  11      0.004660160218
  12     -0.000000000000
  13      0.000000000000
  14     -0.007706079800
  15      0.000000000000
  16     -0.000000000000
  17     -0.001387170780
  18      0.000000000000
  19      0.000038363587
  20      0.002145276994
  21     -0.000000000000
  22      0.000735514654
  23     -0.002880267418
  24     -0.002047529777
  25      0.002424676984
  26      0.000000000000
  27     -0.000000000000
  28     -0.003973802874
  29     -0.000000000000
  30      0.000000000000
  31     -0.000282752260
  32     -0.000000000000
  33     -0.000002357355
  34      0.000461387070
  35      0.000000000000
  36     -0.000477419676
  37      0.002217579271
  38     -0.003100989618
  39      0.005593703149
  40     -0.000000000000
  41      0.000000000000
  42     -0.002910009302
  43      0.000000000000
  44     -0.000000000000
  45      0.000160215921
  46      0.000000000000
  47      0.000013231441
  48     -0.000297249126
  49     -0.000000000000
 Ene=   0.88346066199531E+00
 Spin= Alpha
 Occup=    0.000000
   1     -0.000233908080
   2      0.001754172394
   3     -0.009843098194
   4      0.019898011279
   5     -0.010342533125
   6      0.000000000000
   7      0.000000000000
   8     -0.002351546519
   9      0.000000000000
  10     -0.000000000000
  11      0.012260719595
  12     -0.000000000000
  13      0.000000000000
  14     -0.020211699601
  15      0.000000000000
  16     -0.000000000000
  17     -0.003541620111
  18      0.000000000000
  19      0.000226915057
  20      0.005639705118
  21     -0.000000000000
  22      0.001888710008
  23     -0.007329463168
  24     -0.005335013551
  25      0.006200692631
  26     -0.000000000000
  27     -0.000000000000
  28     -0.010609232580
  29     -0.000000000000
  30      0.000000000000
  31     -0.000721340507
  32     -0.000000000000
  33      0.000019567284
  34      0.001212164868
  35      0.000000000000
  36     -0.001224965255
  37      0.005720769023
  38     -0.008342663734
  39      0.014601483639
  40     -0.000000000000
  41      0.000000000000
  42     -0.007741316105
  43      0.000000000000
  44     -0.000000000000
  45      0.000411592281
  46      0.000000000000
  47      0.000025343501
  48     -0.000774359400
  49     -0.000000000000
 Ene=   0.88916823636606E+00
 Spin= Alpha
 Occup=    0.000000
   1     -0.000101423624
   2      0.000761092176
   3     -0.004308830318
   4      0.009041588828
   5     -0.003150407851
   6      0.000000000000
   7     -0.000000000000
   8     -0.001166238223
   9     -0.000000000000
  10      0.000000000000
  11      0.005490567523
  12     -0.000000000000
  13     -0.000000000000
  14     -0.009121874346
  15     -0.000000000000
  16      0.000000000000
  17     -0.001551259404
  18     -0.000000000000
  19      0.000132904505
  20      0.002473465205
  21      0.000000000000
  22      0.000799724902
  23     -0.003046424989
  24     -0.002490215397
  25      0.002702086835
  26     -0.000000000000
  27      0.000000000000
  28     -0.005082362790
  29      0.000000000000
  30     -0.000000000000
  31     -0.000308602307
  32      0.000000000000
  33      0.000017320678
  34      0.000517915188
  35     -0.000000000000
  36     -0.000531504047
  37      0.002507372371
  38     -0.003987694211
  39      0.006338986719
  40      0.000000000000
  41     -0.000000000000
  42     -0.003470756496
  43     -0.000000000000
  44      0.000000000000
  45      0.000178118439
  46     -0.000000000000
  47      0.000008463787
  48     -0.000334941431
  49      0.000000000000
 Ene=   0.91798260078696E+00
 Spin= Alpha
 Occup=    0.000000
   1      0.015196939746
   2     -0.114511351149
   3      0.683080350151
   4     -1.726937077524
   5     -0.583602269560
   6     -0.000000000001
   7     -0.000000000000
   8      0.289132694235
   9      0.000000000000
  10      0.000000000000
  11     -0.957772262356
  12      0.000000000000
  13      0.000000000000
  14      1.676796369261
  15     -0.000000000000
  16     -0.000000000000
  17      0.254591435855
  18      0.000000000000
  19     -0.014307976104
  20     -0.407556444527
  21      0.000000000000
  22     -0.106871472497
  23      0.351997837266
  24      0.481605577793
  25     -0.402986487126
  26      0.000000000000
  27      0.000000000000
  28      1.213616050052
  29     -0.000000000000
  30      0.000000000000
  31      0.044898904035
  32     -0.000000000000
  33     -0.001398040093
  34     -0.074502596626
  35      0.000000000000
  36      0.081568076241
  37     -0.411011114893
  38      0.981465402651
  39     -0.962149172097
  40     -0.000000000000
  41      0.000000000000
  42      0.642753336633
  43      0.000000000000
  44     -0.000000000000
  45     -0.026637679895
  46      0.000000000000
  47     -0.001565956164
  48      0.049794539007
  49      0.000000000000
 Ene=   0.92677026160653E+00
 Spin= Alpha
 Occup=    0.000000
   1     -0.000001976129
   2      0.000014929673
   3     -0.000090911062
   4      0.000245545217
   5      0.000132337590
   6     -0.000000000000
   7     -0.000000000000
   8     -0.000043905125
   9     -0.000000000000
  10      0.000000000000
  11      0.000132387531
  12      0.000000000000
  13     -0.000000000000
  14     -0.000235717449
  15     -0.000000000000
  16      0.000000000000
  17     -0.000033575352
  18     -0.000000000000
  19      0.000002787335
  20      0.000055723543
  21      0.000000000000
  22      0.000013369175
  23     -0.000040672155
  24     -0.000066682611
  25      0.000053288922
  26     -0.000000000000
  27      0.000000000000
  28     -0.000184381396
  29      0.000000000000
  30     -0.000000000000
  31     -0.000005765415
  32      0.000000000000
  33      0.000000082906
  34      0.000009475150
  35     -0.000000000000
  36     -0.000010989766
  37      0.000057027276
  38     -0.000152128601
  39      0.000126426965
  40      0.000000000000
  41     -0.000000000000
  42     -0.000091171021
  43     -0.000000000000
  44      0.000000000000
  45      0.000003395713
  46     -0.000000000000
  47      0.000000021004
  48     -0.000006524765
  49      0.000000000000
 Ene=   0.10490322467994E+01
 Spin= Alpha
 Occup=    0.000000
   1      0.013106784281
   2     -0.098340997251
   3      0.305406677457
   4      4.080912297112
   5     -0.072451603152
   6      0.000000000000
   7     -0.000000000000
   8      0.035231718182
   9      0.000000000000
  10      0.000000000000
  11     -0.133265313264
  12     -0.000000000000
  13     -0.000000000000
  14     -2.452691385359
  15      0.000000000000
  16      0.000000000000
  17     -0.253750025109
  18     -0.000000000000
  19      0.006566667309
  20      0.424176309768
  21     -0.000000000000
  22     -0.135341068048
  23      1.863567913277
  24      3.237422132281
  25     -0.565657766462
  26      0.000000000000
  27      0.000000000000
  28     -8.469682932722
  29     -0.000000000000
  30     -0.000000000000
  31     -0.070172817670
  32      0.000000000000
  33     -0.000542704519
  34      0.122809164488
  35     -0.000000000000
  36     -0.183317099938
  37      1.772155441163
  38    -10.961179591339
  39     -0.285245352391
  40     -0.000000000000
  41     -0.000000000000
  42     -3.447092907332
  43      0.000000000000
  44      0.000000000000
  45     -0.030284532401
  46     -0.000000000000
  47     -0.001655970735
  48      0.056317541056
  49     -0.000000000000
 Ene=   0.10567680717329E+01
 Spin= Alpha
 Occup=    0.000000
   1      0.000000368567
   2     -0.000002763967
   3      0.000008377679
   4      0.000116318653
   5     -0.000000118039
   6     -0.000000000000
   7     -0.000000000001
   8      0.000000744473
   9     -0.000000000000
  10      0.000000000000
  11     -0.000003292308
  12      0.000000000000
  13     -0.000000000000
  14     -0.000070342416
  15     -0.000000000000
  16      0.000000000000
  17     -0.000007627646
  18     -0.000000000000
  19     -0.000000390206
  20      0.000012330921
  21      0.000000000000
  22     -0.000003796903
  23      0.000052729362
  24      0.000091570036
  25     -0.000016598443
  26     -0.000000000000
  27     -0.000000000000
  28     -0.000240250377
  29      0.000000000000
  30     -0.000000000000
  31     -0.000002015137
  32      0.000000000000
  33      0.000000144813
  34      0.000003512456
  35     -0.000000000000
  36     -0.000005253112
  37      0.000050607493
  38     -0.000311279996
  39     -0.000008043993
  40      0.000000000000
  41     -0.000000000000
  42     -0.000098014269
  43     -0.000000000000
  44      0.000000000000
  45     -0.000000942435
  46     -0.000000000000
  47      0.000000498662
  48      0.000001470825
  49      0.000000000000
 Ene=   0.12448576526966E+01
 Spin= Alpha
 Occup=    0.000000
   1     -0.000463673258
   2      0.014391815231
   3     -0.665025378816
   4      2.397467838368
   5      0.659177387509
   6      0.000000000001
   7      0.000000000000
   8     -0.037268401690
   9     -0.000000000000
  10      0.000000000000
  11      0.165616093912
  12     -0.000000000000
  13     -0.000000000000
  14     -1.750198494969
  15     -0.000000000000
  16      0.000000000000
  17     -0.507042467648
  18     -0.000000000000