 Entering Link 1 = D:\Gaussian16W\G16W\l1.exe PID=     36392.
  
 Copyright (c) 1988,1990,1992,1993,1995,1998,2003,2009,2016,
            Gaussian, Inc.  All Rights Reserved.
  
 This is part of the Gaussian(R) 16 program.  It is based on
 the Gaussian(R) 09 system (copyright 2009, Gaussian, Inc.),
 the Gaussian(R) 03 system (copyright 2003, Gaussian, Inc.),
 the Gaussian(R) 98 system (copyright 1998, Gaussian, Inc.),
 the Gaussian(R) 94 system (copyright 1995, Gaussian, Inc.),
 the Gaussian 92(TM) system (copyright 1992, Gaussian, Inc.),
 the Gaussian 90(TM) system (copyright 1990, Gaussian, Inc.),
 the Gaussian 88(TM) system (copyright 1988, Gaussian, Inc.),
 the Gaussian 86(TM) system (copyright 1986, Carnegie Mellon
 University), and the Gaussian 82(TM) system (copyright 1983,
 Carnegie Mellon University). Gaussian is a federally registered
 trademark of Gaussian, Inc.
  
 This software contains proprietary and confidential information,
 including trade secrets, belonging to Gaussian, Inc.
  
 This software is provided under written license and may be
 used, copied, transmitted, or stored only in accord with that
 written license.
  
 The following legend is applicable only to US Government
 contracts under FAR:
  
                    RESTRICTED RIGHTS LEGEND
  
 Use, reproduction and disclosure by the US Government is
 subject to restrictions as set forth in subparagraphs (a)
 and (c) of the Commercial Computer Software - Restricted
 Rights clause in FAR 52.227-19.
  
 Gaussian, Inc.
 340 Quinnipiac St., Bldg. 40, Wallingford CT 06492
  
  
 ---------------------------------------------------------------
 Warning -- This program may not be used in any manner that
 competes with the business of Gaussian, Inc. or will provide
 assistance to any competitor of Gaussian, Inc.  The licensee
 of this program is prohibited from giving any competitor of
 Gaussian, Inc. access to this program.  By using this program,
 the user acknowledges that Gaussian, Inc. is engaged in the
 business of creating and licensing software in the field of
 computational chemistry and represents and warrants to the
 licensee that it is not a competitor of Gaussian, Inc. and that
 it will not use this program in any manner prohibited above.
 ---------------------------------------------------------------
  

 Cite this work as:
 Gaussian 16, Revision A.03,
 M. J. Frisch, G. W. Trucks, H. B. Schlegel, G. E. Scuseria, 
 M. A. Robb, J. R. Cheeseman, G. Scalmani, V. Barone, 
 G. A. Petersson, H. Nakatsuji, X. Li, M. Caricato, A. V. Marenich, 
 J. Bloino, B. G. Janesko, R. Gomperts, B. Mennucci, H. P. Hratchian, 
 J. V. Ortiz, A. F. Izmaylov, J. L. Sonnenberg, D. Williams-Young, 
 F. Ding, F. Lipparini, F. Egidi, J. Goings, B. Peng, A. Petrone, 
 T. Henderson, D. Ranasinghe, V. G. Zakrzewski, J. Gao, N. Rega, 
 G. Zheng, W. Liang, M. Hada, M. Ehara, K. Toyota, R. Fukuda, 
 J. Hasegawa, M. Ishida, T. Nakajima, Y. Honda, O. Kitao, H. Nakai, 
 T. Vreven, K. Throssell, J. A. Montgomery, Jr., J. E. Peralta, 
 F. Ogliaro, M. J. Bearpark, J. J. Heyd, E. N. Brothers, K. N. Kudin, 
 V. N. Staroverov, T. A. Keith, R. Kobayashi, J. Normand, 
 K. Raghavachari, A. P. Rendell, J. C. Burant, S. S. Iyengar, 
 J. Tomasi, M. Cossi, J. M. Millam, M. Klene, C. Adamo, R. Cammi, 
 J. W. Ochterski, R. L. Martin, K. Morokuma, O. Farkas, 
 J. B. Foresman, and D. J. Fox, Gaussian, Inc., Wallingford CT, 2016.
 
 ******************************************
 Gaussian 16:  EM64W-G16RevA.03 17-Dec-2016
                29-Mar-2025 
 ******************************************
 %chk=E:\VSCode_TRESC\tests\HO-Fe-O\Gaussian\Scratch\HO-Fe-O-5et.chk
 %mem=1500MB
 %nprocshared=4
 Will use up to    4 processors via shared memory.
 ----------------------------------------------------------------------
 # upbe1pbe/gen guess=read nosymm iop(3/32=2,3/27=9) int=nobasistransfo
 rm
 ----------------------------------------------------------------------
 1/38=1,172=1/1;
 2/12=2,15=1,17=6,18=5,40=1/2;
 3/5=7,11=2,25=1,27=9,30=1,32=2,60=-1,74=-13,116=2/1,2,3;
 4/5=1/1;
 5/5=2,38=6/2;
 6/7=2,8=2,9=2,10=2,28=1/1;
 99/5=1,9=1/99;
 -----------
 HO-Fe-O-5et
 -----------
 Symbolic Z-matrix:
 Charge =  3 Multiplicity = 5
 Fe(Fragment=1)       -0.31059   0.83857  -0.70134 
 O(Fragment=3)         0.16809   0.36637  -2.38442 
 O(Fragment=2)        -0.34725   2.44422  -0.93727 
 H(Fragment=3)         0.29086   1.18109  -2.89575 
 
                          Input orientation:                          
 ---------------------------------------------------------------------
 Center     Atomic      Atomic             Coordinates (Angstroms)
 Number     Number       Type             X           Y           Z
 ---------------------------------------------------------------------
      1         26           0       -0.310593    0.838571   -0.701336
      2          8           0        0.168094    0.366367   -2.384415
      3          8           0       -0.347254    2.444221   -0.937274
      4          1           0        0.290857    1.181088   -2.895752
 ---------------------------------------------------------------------
                    Distance matrix (angstroms):
                    1          2          3          4
     1  Fe   0.000000
     2  O    1.812422   0.000000
     3  O    1.623306   2.584043   0.000000
     4  H    2.300983   0.969694   2.416263   0.000000
 Symmetry turned off by external request.
 Stoichiometry    FeHO2(3+,5)
 Framework group  C1[X(FeHO2)]
 Deg. of freedom     6
 Full point group                 C1      NOp   1
 Rotational constants (GHZ):          18.1751626           9.0985845           6.0634397
 General basis read from cards:  (5D, 7F)
    74 basis functions,   138 primitive gaussians,    81 cartesian basis functions
    22 alpha electrons       18 beta electrons
       nuclear repulsion energy       153.7391940381 Hartrees.
 NAtoms=    4 NActive=    4 NUniq=    4 SFac= 1.00D+00 NAtFMM=   60 NAOKFM=F Big=F
 Integral buffers will be    131072 words long.
 Raffenetti 2 integral format.
 Two-electron integral symmetry is turned off.
 One-electron integrals computed using PRISM.
 NBasis=    74 RedAO= F EigKep=  0.00D+00  NBF=    74
 NBsUse=    74 1.00D-04 EigRej=  0.00D+00 NBFU=    74
 Initial guess from the checkpoint file:  "E:\VSCode_TRESC\tests\HO-Fe-O\Gaussian\Scratch\HO-Fe-O-5et.chk"
 GSVD:  LWork=       -4983 too small for GESVD, short by       27405 words or       27405 for optimal perf.
 B after Tr=    -0.405098    1.998216   -2.096453
         Rot=    0.749722    0.234537   -0.560906    0.261331 Ang=  82.87 deg.
 Initial guess <Sx>= 0.0000 <Sy>= 0.0000 <Sz>= 2.0000 <S**2>= 6.0000 S= 2.0000
 Keep R1 and R2 ints in memory in canonical form, NReq=11321941.
 Requested convergence on RMS density matrix=1.00D-08 within 128 cycles.
 Requested convergence on MAX density matrix=1.00D-06.
 Requested convergence on             energy=1.00D-06.
 No special actions if energy rises.
 GSVD:  LWork=       -6068 too small for GESVD, short by       28490 words or       28490 for optimal perf.
 EnCoef did   100 forward-backward iterations
 EnCoef did   100 forward-backward iterations
 EnCoef did     2 forward-backward iterations
 EnCoef did   100 forward-backward iterations
 EnCoef did     3 forward-backward iterations
 EnCoef did   100 forward-backward iterations
 SCF Done:  E(UPBE1PBE) =  -1410.02052791     A.U. after   70 cycles
            NFock= 70  Conv=0.81D-08     -V/T= 1.9970
 <Sx>= 0.0000 <Sy>= 0.0000 <Sz>= 2.0000 <S**2>= 7.0987 S= 2.2109
 <L.S>= 0.000000000000E+00
 Annihilation of the first spin contaminant:
 S**2 before annihilation     7.0987,   after     6.1906

 **********************************************************************

            Population analysis using the SCF density.

 **********************************************************************

 Alpha  occ. eigenvalues -- -256.65173 -31.12596 -27.09828 -27.07988 -27.07702
 Alpha  occ. eigenvalues --  -20.26171 -20.21804  -4.64870  -3.45454  -3.41523
 Alpha  occ. eigenvalues --   -3.41318  -1.96069  -1.89943  -1.49125  -1.44919
 Alpha  occ. eigenvalues --   -1.43088  -1.42442  -1.41777  -1.36762  -1.33531
 Alpha  occ. eigenvalues --   -1.30212  -1.26196
 Alpha virt. eigenvalues --   -1.10142  -1.06149  -0.81718  -0.68372  -0.63344
 Alpha virt. eigenvalues --   -0.57475  -0.53597  -0.39892  -0.12945  -0.04100
 Alpha virt. eigenvalues --   -0.00720   0.00599   0.07370   0.15752   0.17854
 Alpha virt. eigenvalues --    0.21892   0.22583   0.23501   0.32788   0.34564
 Alpha virt. eigenvalues --    0.40265   0.48431   0.49836   0.58293   0.61920
 Alpha virt. eigenvalues --    0.64013   0.82356   1.02076   1.38571   1.58940
 Alpha virt. eigenvalues --    1.59827   1.70307   1.72777   1.78045   2.03232
 Alpha virt. eigenvalues --    2.04933   2.06066   2.22673   2.80298   2.97138
 Alpha virt. eigenvalues --    2.97933   2.99106   3.01133   3.06120   3.12040
 Alpha virt. eigenvalues --    3.30962   7.12079   7.26189   7.41552  13.80160
 Alpha virt. eigenvalues --   53.61016 675.63106
  Beta  occ. eigenvalues -- -256.65157 -31.04675 -27.02700 -27.02124 -27.01106
  Beta  occ. eigenvalues --  -20.25294 -20.21558  -4.45550  -3.23569  -3.22439
  Beta  occ. eigenvalues --   -3.20043  -1.99192  -1.82616  -1.44850  -1.38054
  Beta  occ. eigenvalues --   -1.35512  -1.31769  -1.26825
  Beta virt. eigenvalues --   -1.12406  -1.05060  -1.04000  -1.03841  -1.00374
  Beta virt. eigenvalues --   -0.97946  -0.77796  -0.64740  -0.62775  -0.54176
  Beta virt. eigenvalues --   -0.51054  -0.39092  -0.11169  -0.00390   0.01119
  Beta virt. eigenvalues --    0.08313   0.10673   0.19758   0.21776   0.22212
  Beta virt. eigenvalues --    0.25733   0.28780   0.36919   0.37982   0.44876
  Beta virt. eigenvalues --    0.52733   0.57612   0.60781   0.62302   0.67018
  Beta virt. eigenvalues --    0.85399   1.07442   1.36251   1.65070   1.74130
  Beta virt. eigenvalues --    1.75485   1.76840   1.80073   1.98665   2.00373
  Beta virt. eigenvalues --    2.04295   2.29263   2.78060   3.12815   3.14181
  Beta virt. eigenvalues --    3.14497   3.18046   3.18268   3.24874   3.41871
  Beta virt. eigenvalues --    7.24959   7.39468   7.52367  13.93716  53.69294
  Beta virt. eigenvalues --  675.63508
          Condensed to atoms (all electrons):
               1          2          3          4
     1  Fe  23.800469   0.146298   0.141511   0.000133
     2  O    0.146298   7.262244   0.019084   0.297689
     3  O    0.141511   0.019084   7.451752   0.000049
     4  H    0.000133   0.297689   0.000049   0.276008
          Atomic-Atomic Spin Densities.
               1          2          3          4
     1  Fe   3.707716  -0.015307  -0.062572  -0.003409
     2  O   -0.015307  -1.207346   0.003798   0.005603
     3  O   -0.062572   0.003798   1.613675   0.000190
     4  H   -0.003409   0.005603   0.000190   0.029350
 Mulliken charges and spin densities:
               1          2
     1  Fe   1.911590   3.626428
     2  O    0.274685  -1.213253
     3  O    0.387604   1.555091
     4  H    0.426121   0.031734
 Sum of Mulliken charges =   3.00000   4.00000
 Mulliken charges and spin densities with hydrogens summed into heavy atoms:
               1          2
     1  Fe   1.911590   3.626428
     2  O    0.700806  -1.181519
     3  O    0.387604   1.555091
         Mulliken charges and spin densities condensed to fragments:
      1      1.911590      3.626428
      2      0.387604      1.555091
      3      0.700806     -1.181519
 Electronic spatial extent (au):  <R**2>=            517.1902
 Charge=              3.0000 electrons
 Dipole moment (field-independent basis, Debye):
    X=             -2.7530    Y=             15.0154    Z=            -16.8994  Tot=             22.7735
 Quadrupole moment (field-independent basis, Debye-Ang):
   XX=            -14.8962   YY=              4.1395   ZZ=             16.4563
   XY=             -3.0985   XZ=             -0.3479   YZ=            -17.9011
 Traceless Quadrupole moment (field-independent basis, Debye-Ang):
   XX=            -16.7960   YY=              2.2396   ZZ=             14.5564
   XY=             -3.0985   XZ=             -0.3479   YZ=            -17.9011
 Octapole moment (field-independent basis, Debye-Ang**2):
  XXX=              8.9325  YYY=            -18.0200  ZZZ=            -21.9839  XYY=             -2.0245
  XXY=            -17.3569  XXZ=             18.6941  XZZ=              9.0389  YZZ=             15.8295
  YYZ=             -3.6129  XYZ=             -0.0585
 Hexadecapole moment (field-independent basis, Debye-Ang**3):
 XXXX=            -16.8826 YYYY=           -114.1416 ZZZZ=             17.5184 XXXY=             15.6192
 XXXZ=             -4.0364 YYYX=              4.6280 YYYZ=             14.8640 ZZZX=            -23.9102
 ZZZY=            -30.1183 XXYY=            -34.2781 XXZZ=            -34.7641 YYZZ=            -25.0787
 XXYZ=             17.5437 YYXZ=              0.1520 ZZXY=             11.3514
 N-N= 1.537391940381D+02 E-N=-3.628938254746D+03  KE= 1.414291047090D+03
                          Isotropic Fermi Contact Couplings
        Atom                 a.u.       MegaHertz       Gauss      10(-4) cm-1
     1  Fe(57)            -0.26603      -9.64638      -3.44207      -3.21769
     2  O(17)             -0.32807      49.71839      17.74076      16.58427
     3  O(17)              0.47411     -71.85087     -25.63818     -23.96687
     4  H(1)               0.02229      24.90471       8.88662       8.30732
 --------------------------------------------------------
       Center         ----  Spin Dipole Couplings  ----
                      3XX-RR        3YY-RR        3ZZ-RR
 --------------------------------------------------------
     1   Atom        0.522841     -1.838159      1.315318
     2   Atom       -3.123854      1.966176      1.157678
     3   Atom        1.090639     -3.838452      2.747813
     4   Atom        0.024924     -0.146652      0.121728
 --------------------------------------------------------
                        XY            XZ            YZ
 --------------------------------------------------------
     1   Atom        0.097725     -0.030485      0.296194
     2   Atom        0.067082     -1.294079     -0.829808
     3   Atom        0.315439     -0.308493      0.002355
     4   Atom       -0.039659     -0.035523      0.153305
 --------------------------------------------------------


 ---------------------------------------------------------------------------------
              Anisotropic Spin Dipole Couplings in Principal Axis System
 ---------------------------------------------------------------------------------

       Atom             a.u.   MegaHertz   Gauss  10(-4) cm-1        Axes

              Baa    -1.8699   -32.374   -11.552   -10.799 -0.0418  0.9948 -0.0929
     1 Fe(57) Bbb     0.5265     9.115     3.252     3.040  0.9988  0.0440  0.0221
              Bcc     1.3435    23.259     8.299     7.758 -0.0260  0.0919  0.9954
 
              Baa    -3.4893   252.483    90.092    84.219  0.9615  0.0297  0.2731
     2 O(17)  Bbb     0.8969   -64.902   -23.159   -21.649 -0.2347  0.6051  0.7607
              Bcc     2.5924  -187.581   -66.934   -62.570  0.1426  0.7956 -0.5888
 
              Baa    -3.8586   279.208    99.628    93.134 -0.0638  0.9980 -0.0033
     3 O(17)  Bbb     1.0548   -76.326   -27.235   -25.460  0.9818  0.0634  0.1788
              Bcc     2.8038  -202.882   -72.393   -67.674 -0.1787 -0.0081  0.9839
 
              Baa    -0.2181  -116.388   -41.530   -38.823  0.0900  0.9113 -0.4017
     4 H(1)   Bbb     0.0136     7.235     2.582     2.413  0.9605  0.0272  0.2769
              Bcc     0.2046   109.153    38.949    36.410 -0.2633  0.4107  0.8729
 

 ---------------------------------------------------------------------------------


 Test job not archived.
 1|1|UNPC-BATCOMPUTER|SP|UPBE1PBE|Gen|Fe1H1O2(3+,5)|DELL|29-Mar-2025|0|
 |# upbe1pbe/gen guess=read nosymm iop(3/32=2,3/27=9) int=nobasistransf
 orm||HO-Fe-O-5et||3,5|Fe,0,-0.310593,0.838571,-0.701336|O,0,0.168094,0
 .366367,-2.384415|O,0,-0.347254,2.444221,-0.937274|H,0,0.290857,1.1810
 88,-2.895752||Version=EM64W-G16RevA.03|HF=-1410.0205279|S2=7.098745|S2
 -1=0.|S2A=6.190575|RMSD=8.106e-009|Dipole=0.1321984,-0.0871276,-0.3593
 635|Quadrupole=-12.4874455,1.6651075,10.822338,-2.3036645,-0.258662,-1
 3.3090282|PG=C01 [X(Fe1H1O2)]||@


 THE MEEK SHALL INHERIT THE EARTH.
 (THE REST OF US WILL ESCAPE TO THE STARS)
 Job cpu time:       0 days  0 hours  0 minutes 37.0 seconds.
 Elapsed time:       0 days  0 hours  0 minutes 33.4 seconds.
 File lengths (MBytes):  RWF=     10 Int=      0 D2E=      0 Chk=      2 Scr=      1
 Normal termination of Gaussian 16 at Sat Mar 29 12:32:55 2025.
