[Molden Format]
[Title]
generated by TRESC, real part2 of MOs of job Ni0-C2H4
 
[Atoms] AU
Ni   1  28    1.8539796126    6.7825327278   -0.4903308426
 C   2   6    4.6704257640    4.7931727241    1.2726747479
 C   3   6    5.0465532453    4.7581863879   -1.3126919263
 H   4   1    5.6975577332    6.1191094603    2.4870942128
 H   5   1    3.7846974132    3.1964352679    2.2493349313
 H   6   1    4.4712691419    3.1312517299   -2.4574086438
 H   7   1    6.3839198639    6.0535352724   -2.2192553710
[GTO]
  1 0
 s  6 1.0
    71074.8032110000        0.0049184150
    10672.0209410000        0.0200173975
     2428.1389007000        0.0784715325
      685.5359514800        0.2482002663
      223.1007286300        0.4665280195
       76.8420140400        0.3374151926
 s  1 1.0
      148.7112201600        1.0000000000
 s  1 1.0
       17.4591549900        1.0000000000
 s  1 1.0
        7.1625280700        1.0000000000
 s  1 1.0
       12.5561371300        1.0000000000
 s  1 1.0
        2.0735740500        1.0000000000
 s  1 1.0
        0.8538264100        1.0000000000
 s  1 1.0
        0.1053676600        1.0000000000
 s  1 1.0
        0.0381340900        1.0000000000
 p  5 1.0
      916.7360866200        0.0107030171
      216.0613991300        0.0711467350
       68.3839148200        0.2646675976
       24.5938439500        0.5093159720
        9.1392960200        0.3283291628
 p  1 1.0
        4.7193371700        1.0000000000
 p  1 1.0
        1.8161849200        1.0000000000
 p  1 1.0
        0.6784075100        1.0000000000
 d  4 1.0
       47.0938321100        0.0346401353
       13.1464639700        0.1833736831
        4.4170548900        0.4455621030
        1.4771565100        0.5627236040
 d  1 1.0
        0.4373592200        1.0000000000
 p  1 1.0
        0.1465880000        1.0000000000
 f  1 1.0
        2.1740000000        1.0000000000
 
  2 0
 s  5 1.0
     1238.4016938000        0.0059599745
      186.2900499200        0.0422621111
       42.2511763500        0.1866575214
       11.6765579300        0.4675815865
        3.5930506500        0.4422897287
 s  1 1.0
        0.4024514700        1.0000000000
 s  1 1.0
        0.1309018300        1.0000000000
 p  3 1.0
        9.4680970600        0.0570294585
        2.0103545100        0.3130471495
        0.5477100500        0.7605135301
 p  1 1.0
        0.1526861400        1.0000000000
 d  1 1.0
        0.8000000000        1.0000000000
 
  3 0
 s  5 1.0
     1238.4016938000        0.0059599745
      186.2900499200        0.0422621111
       42.2511763500        0.1866575214
       11.6765579300        0.4675815865
        3.5930506500        0.4422897287
 s  1 1.0
        0.4024514700        1.0000000000
 s  1 1.0
        0.1309018300        1.0000000000
 p  3 1.0
        9.4680970600        0.0570294585
        2.0103545100        0.3130471495
        0.5477100500        0.7605135301
 p  1 1.0
        0.1526861400        1.0000000000
 d  1 1.0
        0.8000000000        1.0000000000
 
  4 0
 s  3 1.0
       13.0107010000        0.0391282527
        1.9622572000        0.2855840539
        0.4445379600        0.7689908602
 s  1 1.0
        0.1219496200        1.0000000000
 p  1 1.0
        0.8000000000        1.0000000000
 
  5 0
 s  3 1.0
       13.0107010000        0.0391282527
        1.9622572000        0.2855840539
        0.4445379600        0.7689908602
 s  1 1.0
        0.1219496200        1.0000000000
 p  1 1.0
        0.8000000000        1.0000000000
 
  6 0
 s  3 1.0
       13.0107010000        0.0391282527
        1.9622572000        0.2855840539
        0.4445379600        0.7689908602
 s  1 1.0
        0.1219496200        1.0000000000
 p  1 1.0
        0.8000000000        1.0000000000
 
  7 0
 s  3 1.0
       13.0107010000        0.0391282527
        1.9622572000        0.2855840539
        0.4445379600        0.7689908602
 s  1 1.0
        0.1219496200        1.0000000000
 p  1 1.0
        0.8000000000        1.0000000000
 
[5D]
[7F]
[9G]
[MO]
 Ene=   0.90536797759274E+00
 Spin= Alpha
 Occup=    0.000000
   1      0.000000000000
   2      0.000000000000
   3      0.000000000000
   4      0.000000000000
   5      0.000000000000
   6      0.000000000000
   7      0.000000000000
   8      0.000000000000
   9      0.000000000000
  10      0.000000000000
  11      0.000000000000
  12      0.000000000000
  13      0.000000000000
  14      0.000000000000
  15      0.000000000000
  16      0.000000000000
  17      0.000000000000
  18      0.000000000000
  19      0.000000000000
  20      0.000000000000
  21      0.000000000000
  22      0.000000000000
  23      0.000000000000
  24      0.000000000000
  25      0.000000000000
  26      0.000000000000
  27      0.000000000000
  28      0.000000000000
  29      0.000000000000
  30      0.000000000000
  31      0.000000000000
  32      0.000000000000
  33      0.000000000000
  34      0.000000000000
  35      0.000000000000
  36      0.000000000000
  37      0.000000000000
  38      0.000000000000
  39      0.000000000000
  40      0.000000000000
  41      0.000000000000
  42      0.000000000000
  43      0.000000000000
  44      0.000000000000
  45      0.000000000000
  46      0.000000000000
  47      0.000000000000
  48      0.000000000000
  49      0.000000000000
  50      0.000000000000
  51      0.000000000000
  52      0.000000000000
  53      0.000000000000
  54      0.000000000000
  55      0.000000000000
  56      0.000000000000
  57      0.000000000000
  58      0.000000000000
  59      0.000000000000
  60      0.000000000000
  61      0.000000000000
  62      0.000000000000
  63      0.000000000000
  64      0.000000000000
  65      0.000000000000
  66      0.000000000000
  67      0.000000000000
  68      0.000000000000
  69      0.000000000000
  70      0.000000000000
  71      0.000000000000
  72      0.000000000000
  73      0.000000000000
  74      0.000000000000
  75      0.000000000000
  76      0.000000000000
  77      0.000000000000
  78      0.000000000000
  79      0.000000000000
  80      0.000000000000
  81      0.000000000000
  82      0.000000000000
  83      0.000000000000
  84      0.000000000000
  85      0.000000000000
  86      0.000000000000
  87      0.000000000000
  88      0.000000000000
  89      0.000000000000
 Ene=   0.10814700799579E+01
 Spin= Alpha
 Occup=    0.000000
   1     -0.000009158596
   2     -0.000006252906
   3      0.000069626221
   4      0.000110452622
   5     -0.000074454668
   6     -0.000254291022
   7      0.000139099615
   8      0.000224188980
   9      0.000047153496
  10      0.001001684653
  11      0.007971663510
  12      0.012084466190
  13     -0.000830390122
  14     -0.006619896507
  15     -0.010048084216
  16     -0.003346565563
  17     -0.026580394567
  18     -0.040236380559
  19      0.003404492634
  20      0.026976611536
  21      0.040786621472
  22      0.007367539094
  23      0.057139155572
  24      0.032333890765
  25      0.406657372016
  26      0.172606346066
  27     -0.010161251257
  28     -0.078923279732
  29     -0.044548055917
  30     -0.562153351913
  31     -0.238617457088
  32      0.002692908240
  33      0.022125689580
  34      0.033402385298
  35     -0.000004998822
  36     -0.000028679212
  37     -0.000001955970
  38     -0.000203580536
  39      0.000014154172
  40     -0.001094651201
  41      0.000200776763
  42      0.000014565399
  43     -0.000007281990
  44      0.000473382221
  45     -0.002098488385
  46     -0.017222309010
  47     -0.026395476885
  48      0.008736249636
  49      0.074136246210
  50      0.113159377504
  51     -0.002783521502
  52      0.003687331855
  53     -0.031458057573
  54      0.267059674357
  55      0.118320699916
  56     -0.000021021237
  57      0.000305394270
  58     -0.001493358322
  59     -0.002140550089
  60     -0.017531987052
  61     -0.026881701091
  62      0.009734237031
  63      0.079910451719
  64      0.121984559593
  65      0.011538135937
  66      0.068909004017
  67      0.071531463455
  68      0.255305155306
  69      0.104028642040
  70     -0.025615869024
  71     -0.084910921410
  72     -0.046396818139
  73      0.208531254499
  74     -0.111726744390
  75      0.025878885679
  76      0.084913152984
  77      0.049012061538
  78     -0.188877446893
  79      0.140733668456
  80      0.028448649399
  81      0.088637868644
  82     -0.105279459007
  83     -0.165636406838
  84      0.138321909590
  85     -0.028055800064
  86     -0.088354209982
  87      0.107530176724
  88      0.185417259957
  89     -0.108922626663
 Ene=   0.10926450500736E+01
 Spin= Alpha
 Occup=    0.000000
   1      0.000000000000
   2      0.000000000000
   3      0.000000000000
   4      0.000000000000
   5      0.000000000000
   6      0.000000000000
   7      0.000000000000
   8      0.000000000000
   9      0.000000000000
  10      0.000000000000
  11      0.000000000000
  12      0.000000000000
  13      0.000000000000
  14      0.000000000000
  15      0.000000000000
  16      0.000000000000
  17      0.000000000000
  18      0.000000000000
  19      0.000000000000
  20      0.000000000000
  21      0.000000000000
  22      0.000000000000
  23      0.000000000000
  24      0.000000000000
  25      0.000000000000
  26      0.000000000000
  27      0.000000000000
  28      0.000000000000
  29      0.000000000000
  30      0.000000000000
  31      0.000000000000
  32      0.000000000000
  33      0.000000000000
  34      0.000000000000
  35      0.000000000000
  36      0.000000000000
  37      0.000000000000
  38      0.000000000000
  39      0.000000000000
  40      0.000000000000
  41      0.000000000000
  42      0.000000000000
  43      0.000000000000
  44      0.000000000000
  45      0.000000000000
  46      0.000000000000
  47      0.000000000000
  48      0.000000000000
  49      0.000000000000
  50      0.000000000000
  51      0.000000000000
  52      0.000000000000
  53      0.000000000000
  54      0.000000000000
  55      0.000000000000
  56      0.000000000000
  57      0.000000000000
  58      0.000000000000
  59      0.000000000000
  60      0.000000000000
  61      0.000000000000
  62      0.000000000000
  63      0.000000000000
  64      0.000000000000
  65      0.000000000000
  66      0.000000000000
  67      0.000000000000
  68      0.000000000000
  69      0.000000000000
  70      0.000000000000
  71      0.000000000000
  72      0.000000000000
  73      0.000000000000
  74      0.000000000000
  75      0.000000000000
  76      0.000000000000
  77      0.000000000000
  78      0.000000000000
  79      0.000000000000
  80      0.000000000000
  81      0.000000000000
  82      0.000000000000
  83      0.000000000000
  84      0.000000000000
  85      0.000000000000
  86      0.000000000000
  87      0.000000000000
  88      0.000000000000
  89      0.000000000000
 Ene=   0.11453605414044E+01
 Spin= Alpha
 Occup=    0.000000
   1     -0.005002456387
   2     -0.003599124794
   3      0.055143073098
   4      0.095654508248
   5     -0.078802940243
   6     -0.197493442484
   7      0.190472159036
   8     -0.644520531584
   9      0.128529800427
  10      0.008805794605
  11      0.056278197522
  12     -0.037598181478
  13     -0.004974647298
  14     -0.031934910704
  15      0.021334055573
  16     -0.040524279016
  17     -0.258359640715
  18      0.172607906283
  19      0.054562386245
  20      0.347659686206
  21     -0.232267219026
  22      0.276774988733
  23     -0.095684299328
  24      0.049717990005
  25     -0.121039335774
  26      0.295683348263
  27     -0.358227384485
  28      0.122479722694
  29     -0.061275162201
  30      0.146198644745
  31     -0.358122298527
  32     -0.057860122932
  33     -0.381251869838
  34      0.254530169204
  35     -0.000524944155
  36     -0.001292829353
  37      0.000871429564
  38      0.000270185621
  39     -0.000563068985
  40     -0.000343030857
  41     -0.001702499020
  42      0.042647897417
  43     -0.288119045039
  44      0.497209781493
  45      0.053241494881
  46      0.219651237849
  47     -0.148139191023
  48     -0.081344516474
  49     -0.306132545309
  50      0.206850207536
  51      0.029008692592
  52      0.250420706321
  53     -0.174939113607
  54      0.014456040291
  55     -0.086056879593
  56      0.042978517600
  57     -0.292485180168
  58      0.525263541522
  59      0.015741290637
  60      0.226083507840
  61     -0.149358917398
  62     -0.007425865781
  63     -0.320253256149
  64      0.210548172944
  65     -0.098283746752
  66     -0.215324351301
  67      0.141731701610
  68      0.079620946983
  69     -0.139180512971
  70      0.000681053581
  71     -0.072327420267
  72      0.060088923837
  73      0.102767693122
  74     -0.107838147898
  75      0.000561146700
  76     -0.072527478134
  77      0.063998230327
  78      0.135829456540
  79     -0.058387049087
  80     -0.000849901496
  81     -0.073895603992
  82     -0.021366183076
  83      0.148263696812
  84     -0.059044671434
  85     -0.000858957211
  86     -0.074048217866
  87     -0.025667694196
  88      0.114858713319
  89     -0.109294512351
 Ene=   0.11604352019932E+01
 Spin= Alpha
 Occup=    0.000000
   1      0.000000000000
   2      0.000000000000
   3      0.000000000000
   4      0.000000000000
   5      0.000000000000
   6      0.000000000000
   7      0.000000000000
   8      0.000000000000
   9      0.000000000000
  10      0.000000000000
  11      0.000000000000
  12      0.000000000000
  13      0.000000000000
  14      0.000000000000
  15      0.000000000000
  16      0.000000000000
  17      0.000000000000
  18      0.000000000000
  19      0.000000000000
  20      0.000000000000
  21      0.000000000000
  22      0.000000000000
  23      0.000000000000
  24      0.000000000000
  25      0.000000000000
  26      0.000000000000
  27      0.000000000000
  28      0.000000000000
  29      0.000000000000
  30      0.000000000000
  31      0.000000000000
  32      0.000000000000
  33      0.000000000000
  34      0.000000000000
  35      0.000000000000
  36      0.000000000000
  37      0.000000000000
  38      0.000000000000
  39      0.000000000000
  40      0.000000000000
  41      0.000000000000
  42      0.000000000000
  43      0.000000000000
  44      0.000000000000
  45      0.000000000000
  46      0.000000000000
  47      0.000000000000
  48      0.000000000000
  49      0.000000000000
  50      0.000000000000
  51      0.000000000000
  52      0.000000000000
  53      0.000000000000
  54      0.000000000000
  55      0.000000000000
  56      0.000000000000
  57      0.000000000000
  58      0.000000000000
  59      0.000000000000
  60      0.000000000000
  61      0.000000000000
  62      0.000000000000
  63      0.000000000000
  64      0.000000000000
  65      0.000000000000
  66      0.000000000000
  67      0.000000000000
  68      0.000000000000
  69      0.000000000000
  70      0.000000000000
  71      0.000000000000
  72      0.000000000000
  73      0.000000000000
  74      0.000000000000
  75      0.000000000000
  76      0.000000000000
  77      0.000000000000
  78      0.000000000000
  79      0.000000000000
  80      0.000000000000
  81      0.000000000000
  82      0.000000000000
  83      0.000000000000
  84      0.000000000000
  85      0.000000000000
  86      0.000000000000
  87      0.000000000000
  88      0.000000000000
  89      0.000000000000
 Ene=   0.12092905306118E+01
 Spin= Alpha
 Occup=    0.000000
   1     -0.002686494000
   2     -0.001783535955
   3      0.015625340425
   4      0.022202190436
   5     -0.011089733959
   6     -0.055102149537
   7      0.002799641015
   8      0.347083356200
   9     -0.023069346497
  10      0.002293190026
  11      0.014897611461
  12     -0.009966400850
  13     -0.001345264981
  14     -0.008749738515
  15      0.005853443440
  16     -0.010375436348
  17     -0.067362194387
  18      0.045065013383
  19      0.013085131131
  20      0.085075852060
  21     -0.056914736099
  22     -0.548521574710
  23      0.116041485247
  24      0.030895199986
  25     -0.144939632873
  26      0.320111690314
  27      0.800774057325
  28     -0.166053407450
  29     -0.050911150241
  30      0.228736303131
  31     -0.507741303268
  32      0.029276993108
  33      0.184419749537
  34     -0.123281854139
  35     -0.000248236421
  36     -0.000625102937
  37      0.000422898936
  38      0.000129098232
  39     -0.000252136779
  40     -0.000151616802
  41     -0.000749338735
  42     -0.019762541128
  43      0.260350269532
  44     -0.667128823611
  45      0.011888127512
  46      0.009321049474
  47     -0.007094029985
  48     -0.084977491209
  49      0.093745874779
  50     -0.054453951670
  51     -0.062070708141
  52      0.029805513460
  53     -0.014849252933
  54      0.018202301590
  55     -0.047273233685
  56     -0.019406181077
  57      0.257719108065
  58     -0.653230921613
  59     -0.009521679843
  60      0.013204950640
  61     -0.007947091562
  62      0.115893638931
  63      0.064055320338
  64     -0.051114716742
  65     -0.067189623039
  66      0.011183597600
  67     -0.002172966834
  68      0.020966266242
  69     -0.049588832272
  70      0.082984393490
  71      0.159890796302
  72     -0.033697451398
  73      0.079990107360
  74     -0.001871537159
  75      0.083021020128
  76      0.159915212989
  77     -0.039115291490
  78      0.036496698527
  79     -0.068428748323
  80      0.082747383451
  81      0.159522589598
  82      0.050066112126
  83      0.023169916639
  84     -0.067266276720
  85      0.082666388582
  86      0.159240854596
  87      0.055660809949
  88      0.067092235981
  89     -0.000346753000
 Ene=   0.12664074000245E+01
 Spin= Alpha
 Occup=    0.000000
   1      0.000000000000
   2      0.000000000000
   3      0.000000000000
   4      0.000000000000
   5      0.000000000000
   6      0.000000000000
   7      0.000000000000
   8      0.000000000000
   9      0.000000000000
  10      0.000000000000
  11      0.000000000000
  12      0.000000000000
  13      0.000000000000
  14      0.000000000000
  15      0.000000000000
  16      0.000000000000
  17      0.000000000000
  18      0.000000000000
  19      0.000000000000
  20      0.000000000000
  21      0.000000000000
  22      0.000000000000
  23      0.000000000000
  24      0.000000000000
  25      0.000000000000
  26      0.000000000000
  27      0.000000000000
  28      0.000000000000
  29      0.000000000000
  30      0.000000000000
  31      0.000000000000
  32      0.000000000000
  33      0.000000000000
  34      0.000000000000
  35      0.000000000000
  36      0.000000000000
  37      0.000000000000
  38      0.000000000000
  39      0.000000000000
  40      0.000000000000
  41      0.000000000000
  42      0.000000000000
  43      0.000000000000
  44      0.000000000000
  45      0.000000000000
  46      0.000000000000
  47      0.000000000000
  48      0.000000000000
  49      0.000000000000
  50      0.000000000000
  51      0.000000000000
  52      0.000000000000
  53      0.000000000000
  54      0.000000000000
  55      0.000000000000
  56      0.000000000000
  57      0.000000000000
  58      0.000000000000
  59      0.000000000000
  60      0.000000000000
  61      0.000000000000
  62      0.000000000000
  63      0.000000000000
  64      0.000000000000
  65      0.000000000000
  66      0.000000000000
  67      0.000000000000
  68      0.000000000000
  69      0.000000000000
  70      0.000000000000
  71      0.000000000000
  72      0.000000000000
  73      0.000000000000
  74      0.000000000000
  75      0.000000000000
  76      0.000000000000
  77      0.000000000000
  78      0.000000000000
  79      0.000000000000
  80      0.000000000000
  81      0.000000000000
  82      0.000000000000
  83      0.000000000000
  84      0.000000000000
  85      0.000000000000
  86      0.000000000000
  87      0.000000000000
  88      0.000000000000
  89      0.000000000000
 Ene=   0.12673440604831E+01
 Spin= Alpha
 Occup=    0.000000
   1      0.000003484947
   2      0.000002383430
   3     -0.000026817538
   4     -0.000042855473
   5      0.000029025434
   6      0.000099827856
   7     -0.000062119791
   8      0.000038514828
   9     -0.000017922925
  10     -0.000018702190
  11     -0.000053991116
  12     -0.000038740474
  13      0.000013811809
  14      0.000031961615
  15      0.000019670389
  16      0.000072827338
  17      0.000245544703
  18      0.000191464688
  19     -0.000094999305
  20     -0.000322656159
  21     -0.000261162725
  22      0.006070112350
  23      0.027564528406
  24      0.043368128164
  25     -0.003447910028
  26     -0.005506857971
  27     -0.006241590733
  28     -0.028280356404
  29     -0.044854023766
  30      0.002843144121
  31      0.005442154223
  32      0.000275829688
  33     -0.000223433351
  34     -0.000347944728
  35     -0.000037768946
  36     -0.000220363220
  37     -0.000124564740
  38     -0.000990562611
  39     -0.000420855446
  40      0.000188300189
  41      0.000059778749
  42     -0.000002474012
  43      0.000259957567
  44     -0.001925683592
  45      0.005685155487
  46      0.045856561269
  47      0.070061013259
  48     -0.052672424782
  49     -0.430128828946
  50     -0.657331569565
  51      0.009187801678
  52      0.028823177042
  53      0.073846236737
  54     -0.217735030342
  55     -0.100829900412
  56     -0.000009791031
  57     -0.000204706311
  58      0.002468073110
  59     -0.005598816318
  60     -0.046073120213
  61     -0.070266884478
  62      0.054030775863
  63      0.430420217286
  64      0.657874526253
  65      0.016162344429
  66      0.086449822758
  67      0.105749803647
  68      0.197354259145
  69      0.076106374219
  70      0.154894226480
  71      0.269179031063
  72      0.143096586267
  73     -0.346283262243
  74      0.134414654132
  75     -0.154709863864
  76     -0.269148908282
  77     -0.152239110698
  78      0.272842745697
  79     -0.246758366711
  80      0.154641128468
  81      0.269106519441
  82     -0.230570532766
  83     -0.215624301769
  84      0.240953238296
  85     -0.155060199815
  86     -0.269632236906
  87      0.239875583315
  88      0.289396505677
  89     -0.127944245898
 Ene=   0.12815127498985E+01
 Spin= Alpha
 Occup=    0.000000
   1      0.000000000000
   2      0.000000000000
   3      0.000000000000
   4      0.000000000000
   5      0.000000000000
   6      0.000000000000
   7      0.000000000000
   8      0.000000000000
   9      0.000000000000
  10      0.000000000000
  11      0.000000000000
  12      0.000000000000
  13      0.000000000000
  14      0.000000000000
  15      0.000000000000
  16      0.000000000000
  17      0.000000000000
  18      0.000000000000
  19      0.000000000000
  20      0.000000000000
  21      0.000000000000
  22      0.000000000000
  23      0.000000000000
  24      0.000000000000
  25      0.000000000000
  26      0.000000000000
  27      0.000000000000
  28      0.000000000000
  29      0.000000000000
  30      0.000000000000
  31      0.000000000000
  32      0.000000000000
  33      0.000000000000
  34      0.000000000000
  35      0.000000000000
  36      0.000000000000
  37      0.000000000000
  38      0.000000000000
  39      0.000000000000
  40      0.000000000000
  41      0.000000000000
  42      0.000000000000
  43      0.000000000000
  44      0.000000000000
  45      0.000000000000
  46      0.000000000000
  47      0.000000000000
  48      0.000000000000
  49      0.000000000000
  50      0.000000000000
  51      0.000000000000
  52      0.000000000000
  53      0.000000000000
  54      0.000000000000
  55      0.000000000000
  56      0.000000000000
  57      0.000000000000
  58      0.000000000000
  59      0.000000000000
  60      0.000000000000
  61      0.000000000000
  62      0.000000000000
  63      0.000000000000
  64      0.000000000000
  65      0.000000000000
  66      0.000000000000
  67      0.000000000000
  68      0.000000000000
  69      0.000000000000
  70      0.000000000000
  71      0.000000000000
  72      0.000000000000
  73      0.000000000000
  74      0.000000000000
  75      0.000000000000
  76      0.000000000000
  77      0.000000000000
  78      0.000000000000
  79      0.000000000000
  80      0.000000000000
  81      0.000000000000
  82      0.000000000000
  83      0.000000000000
  84      0.000000000000
  85      0.000000000000
  86      0.000000000000
  87      0.000000000000
  88      0.000000000000
  89      0.000000000000
 Ene=   0.13108036793611E+01
 Spin= Alpha
 Occup=    0.000000
   1      0.000000207725
   2      0.000000097260
   3      0.000002566760
   4      0.000005983915
   5     -0.000007525260
   6     -0.000007658383
   7      0.000015789984
   8      0.000044417344
   9     -0.000003990743
  10     -0.000043611648
  11      0.000193576765
  12      0.000268484783
  13      0.000027045287
  14     -0.000123318883
  15     -0.000175240644
  16      0.000192147580
  17     -0.000847984657
  18     -0.001156949231
  19     -0.000246258632
  20      0.001123435334
  21      0.001517947009
  22     -0.066320753108
  23     -0.301902323250
  24     -0.470759808442
  25      0.048944357962
  26      0.063341168770
  27      0.103592404587
  28      0.471609284793
  29      0.735391146639
  30     -0.076641161936
  31     -0.099029862246
  32     -0.000188839983
  33      0.000015972163
  34     -0.000077443396
  35     -0.000115746953
  36     -0.000678574081
  37     -0.000379586324
  38     -0.003046504699
  39     -0.001292521438
  40      0.000573061192
  41      0.000183765658
  42      0.000019174334
  43     -0.000549764271
  44      0.003561978293
  45      0.006315911082
  46      0.052594474685
  47      0.080318901227
  48     -0.065691315063
  49     -0.526356474548
  50     -0.804435997884
  51      0.009866317613
  52      0.047171936713
  53      0.068168215111
  54      0.031457254881
  55      0.007686316930
  56     -0.000026100252
  57      0.000681178912
  58     -0.003250659423
  59     -0.006554469688
  60     -0.051995252623
  61     -0.079547290683
  62      0.064830877296
  63      0.524925482725
  64      0.802042923221
  65      0.008510913295
  66      0.036788160136
  67      0.062745947580
  68     -0.043891108509
  69     -0.024769934360
  70      0.196725992749
  71      0.292565701655
  72      0.146395344576
  73     -0.006693961871
  74     -0.169806878564
  75     -0.197399881644
  76     -0.293751943958
  77     -0.165121801071
  78     -0.141639344646
  79     -0.056084444997
  80      0.196805619275
  81      0.291996412035
  82     -0.119063315562
  83      0.179076612466
  84      0.053466193133
  85     -0.196218899193
  86     -0.291204533946
  87      0.137275185658
  88     -0.031665358912
  89      0.170526549722
 Ene=   0.13281912919311E+01
 Spin= Alpha
 Occup=    0.000000
   1      0.000000000000
   2      0.000000000000
   3      0.000000000000
   4      0.000000000000
   5      0.000000000000
   6      0.000000000000
   7      0.000000000000
   8      0.000000000000
   9      0.000000000000
  10      0.000000000000
  11      0.000000000000
  12      0.000000000000
  13      0.000000000000
  14      0.000000000000
  15      0.000000000000
  16      0.000000000000
  17      0.000000000000
  18      0.000000000000
  19      0.000000000000
  20      0.000000000000
  21      0.000000000000
  22      0.000000000000
  23      0.000000000000
  24      0.000000000000
  25      0.000000000000
  26      0.000000000000
  27      0.000000000000
  28      0.000000000000
  29      0.000000000000
  30      0.000000000000
  31      0.000000000000
  32      0.000000000000
  33      0.000000000000
  34      0.000000000000
  35      0.000000000000
  36      0.000000000000
  37      0.000000000000
  38      0.000000000000
  39      0.000000000000
  40      0.000000000000
  41      0.000000000000
  42      0.000000000000
  43      0.000000000000
  44      0.000000000000
  45      0.000000000000
  46      0.000000000000
  47      0.000000000000
  48      0.000000000000
  49      0.000000000000
  50      0.000000000000
  51      0.000000000000
  52      0.000000000000
  53      0.000000000000
  54      0.000000000000
  55      0.000000000000
  56      0.000000000000
  57      0.000000000000
  58      0.000000000000
  59      0.000000000000
  60      0.000000000000
  61      0.000000000000
  62      0.000000000000
  63      0.000000000000
  64      0.000000000000
  65      0.000000000000
  66      0.000000000000
  67      0.000000000000
  68      0.000000000000
  69      0.000000000000
  70      0.000000000000
  71      0.000000000000
  72      0.000000000000
  73      0.000000000000
  74      0.000000000000
  75      0.000000000000
  76      0.000000000000
  77      0.000000000000
  78      0.000000000000
  79      0.000000000000
  80      0.000000000000
  81      0.000000000000
  82      0.000000000000
  83      0.000000000000
  84      0.000000000000
  85      0.000000000000
  86      0.000000000000
  87      0.000000000000
  88      0.000000000000
  89      0.000000000000
 Ene=   0.13489274575159E+01
 Spin= Alpha
 Occup=    0.000000
   1     -0.000007728732
   2     -0.000005325615
   3      0.000063093212
   4      0.000102544182
   5     -0.000072354575
   6     -0.000234350248
   7      0.000151145440
   8      0.000217860934
   9     -0.000004400024
  10      0.003362142390
  11      0.027195413203
  12      0.041419567752
  13     -0.002197647071
  14     -0.017769701979
  15     -0.027066836236
  16     -0.014558144237
  17     -0.117776456798
  18     -0.179364976125
  19      0.019220696519
  20      0.155476122229
  21      0.236768029087
  22     -0.006993123401
  23     -0.057947049557
  24     -0.030294684662
  25     -0.433941330578
  26     -0.184663616812
  27      0.010901064395
  28      0.090474700318
  29      0.047280388734
  30      0.677805815548
  31      0.288427917675