[Molden Format]
[Title]
generated by TRESC, real part1 of MOs of job Ni0-C2H4
 
[Atoms] AU
Ni   1  28    1.8539796126    6.7825327278   -0.4903308426
 C   2   6    4.6704257640    4.7931727241    1.2726747479
 C   3   6    5.0465532453    4.7581863879   -1.3126919263
 H   4   1    5.6975577332    6.1191094603    2.4870942128
 H   5   1    3.7846974132    3.1964352679    2.2493349313
 H   6   1    4.4712691419    3.1312517299   -2.4574086438
 H   7   1    6.3839198639    6.0535352724   -2.2192553710
[GTO]
  1 0
 s  6 1.0
    71074.8032110000        0.0049184150
    10672.0209410000        0.0200173975
     2428.1389007000        0.0784715325
      685.5359514800        0.2482002663
      223.1007286300        0.4665280195
       76.8420140400        0.3374151926
 s  1 1.0
      148.7112201600        1.0000000000
 s  1 1.0
       17.4591549900        1.0000000000
 s  1 1.0
        7.1625280700        1.0000000000
 s  1 1.0
       12.5561371300        1.0000000000
 s  1 1.0
        2.0735740500        1.0000000000
 s  1 1.0
        0.8538264100        1.0000000000
 s  1 1.0
        0.1053676600        1.0000000000
 s  1 1.0
        0.0381340900        1.0000000000
 p  5 1.0
      916.7360866200        0.0107030171
      216.0613991300        0.0711467350
       68.3839148200        0.2646675976
       24.5938439500        0.5093159720
        9.1392960200        0.3283291628
 p  1 1.0
        4.7193371700        1.0000000000
 p  1 1.0
        1.8161849200        1.0000000000
 p  1 1.0
        0.6784075100        1.0000000000
 d  4 1.0
       47.0938321100        0.0346401353
       13.1464639700        0.1833736831
        4.4170548900        0.4455621030
        1.4771565100        0.5627236040
 d  1 1.0
        0.4373592200        1.0000000000
 p  1 1.0
        0.1465880000        1.0000000000
 f  1 1.0
        2.1740000000        1.0000000000
 
  2 0
 s  5 1.0
     1238.4016938000        0.0059599745
      186.2900499200        0.0422621111
       42.2511763500        0.1866575214
       11.6765579300        0.4675815865
        3.5930506500        0.4422897287
 s  1 1.0
        0.4024514700        1.0000000000
 s  1 1.0
        0.1309018300        1.0000000000
 p  3 1.0
        9.4680970600        0.0570294585
        2.0103545100        0.3130471495
        0.5477100500        0.7605135301
 p  1 1.0
        0.1526861400        1.0000000000
 d  1 1.0
        0.8000000000        1.0000000000
 
  3 0
 s  5 1.0
     1238.4016938000        0.0059599745
      186.2900499200        0.0422621111
       42.2511763500        0.1866575214
       11.6765579300        0.4675815865
        3.5930506500        0.4422897287
 s  1 1.0
        0.4024514700        1.0000000000
 s  1 1.0
        0.1309018300        1.0000000000
 p  3 1.0
        9.4680970600        0.0570294585
        2.0103545100        0.3130471495
        0.5477100500        0.7605135301
 p  1 1.0
        0.1526861400        1.0000000000
 d  1 1.0
        0.8000000000        1.0000000000
 
  4 0
 s  3 1.0
       13.0107010000        0.0391282527
        1.9622572000        0.2855840539
        0.4445379600        0.7689908602
 s  1 1.0
        0.1219496200        1.0000000000
 p  1 1.0
        0.8000000000        1.0000000000
 
  5 0
 s  3 1.0
       13.0107010000        0.0391282527
        1.9622572000        0.2855840539
        0.4445379600        0.7689908602
 s  1 1.0
        0.1219496200        1.0000000000
 p  1 1.0
        0.8000000000        1.0000000000
 
  6 0
 s  3 1.0
       13.0107010000        0.0391282527
        1.9622572000        0.2855840539
        0.4445379600        0.7689908602
 s  1 1.0
        0.1219496200        1.0000000000
 p  1 1.0
        0.8000000000        1.0000000000
 
  7 0
 s  3 1.0
       13.0107010000        0.0391282527
        1.9622572000        0.2855840539
        0.4445379600        0.7689908602
 s  1 1.0
        0.1219496200        1.0000000000
 p  1 1.0
        0.8000000000        1.0000000000
 
[5D]
[7F]
[9G]
[MO]
 Ene=  -0.29896435626604E+03
 Spin= Alpha
 Occup=    1.000000
   1      0.865024769139
   2      0.122701579053
   3      0.079723708683
   4      0.011730673959
   5     -0.061133354611
   6     -0.000844588878
   7      0.000203280890
   8     -0.000039585165
   9      0.000014368245
  10     -0.000000088498
  11     -0.000000614149
  12      0.000000410130
  13      0.000000117130
  14      0.000000793570
  15     -0.000000529867
  16     -0.000000215870
  17     -0.000001412634
  18      0.000000943417
  19      0.000000317532
  20      0.000002045681
  21     -0.000001366430
  22     -0.000000824302
  23      0.000000197518
  24      0.000000009049
  25     -0.000000111739
  26      0.000000229208
  27      0.000000927818
  28     -0.000000404298
  29      0.000000314179
  30     -0.000000847770
  31      0.000002034918
  32     -0.000001258569
  33     -0.000008001220
  34      0.000005346087
  35      0.000000033975
  36      0.000000082067
  37     -0.000000055154
  38     -0.000000017170
  39      0.000000038483
  40      0.000000024217
  41      0.000000120591
  42     -0.000000058775
  43     -0.000001003599
  44      0.000010725902
  45     -0.000000428957
  46     -0.000000510479
  47      0.000000369083
  48      0.000000475295
  49     -0.000003734527
  50      0.000002400366
  51     -0.000000288588
  52      0.000000135436
  53     -0.000000060537
  54      0.000000047446
  55     -0.000000133343
  56     -0.000000059756
  57     -0.000000972896
  58      0.000010499216
  59      0.000000253594
  60     -0.000000611943
  61      0.000000379562
  62     -0.000001697292
  63     -0.000003394477
  64      0.000002363410
  65     -0.000000310822
  66      0.000000047485
  67      0.000000001588
  68      0.000000056864
  69     -0.000000137133
  70     -0.000000654297
  71     -0.000002645203
  72     -0.000000249328
  73      0.000000005917
  74      0.000000164699
  75     -0.000000657343
  76     -0.000002654424
  77     -0.000000263707
  78     -0.000000127740
  79     -0.000000044313
  80     -0.000000652380
  81     -0.000002640279
  82      0.000000221943
  83     -0.000000206980
  84     -0.000000037107
  85     -0.000000651939
  86     -0.000002638947
  87      0.000000240411
  88     -0.000000068047
  89      0.000000178823
 Ene=  -0.29896331692089E+03
 Spin= Alpha
 Occup=    0.000000
   1      0.000000000000
   2      0.000000000000
   3      0.000000000000
   4      0.000000000000
   5      0.000000000000
   6      0.000000000000
   7      0.000000000000
   8      0.000000000000
   9      0.000000000000
  10      0.000000000000
  11      0.000000000000
  12      0.000000000000
  13      0.000000000000
  14      0.000000000000
  15      0.000000000000
  16      0.000000000000
  17      0.000000000000
  18      0.000000000000
  19      0.000000000000
  20      0.000000000000
  21      0.000000000000
  22      0.000000000000
  23      0.000000000000
  24      0.000000000000
  25      0.000000000000
  26      0.000000000000
  27      0.000000000000
  28      0.000000000000
  29      0.000000000000
  30      0.000000000000
  31      0.000000000000
  32      0.000000000000
  33      0.000000000000
  34      0.000000000000
  35      0.000000000000
  36      0.000000000000
  37      0.000000000000
  38      0.000000000000
  39      0.000000000000
  40      0.000000000000
  41      0.000000000000
  42      0.000000000000
  43      0.000000000000
  44      0.000000000000
  45      0.000000000000
  46      0.000000000000
  47      0.000000000000
  48      0.000000000000
  49      0.000000000000
  50      0.000000000000
  51      0.000000000000
  52      0.000000000000
  53      0.000000000000
  54      0.000000000000
  55      0.000000000000
  56      0.000000000000
  57      0.000000000000
  58      0.000000000000
  59      0.000000000000
  60      0.000000000000
  61      0.000000000000
  62      0.000000000000
  63      0.000000000000
  64      0.000000000000
  65      0.000000000000
  66      0.000000000000
  67      0.000000000000
  68      0.000000000000
  69      0.000000000000
  70      0.000000000000
  71      0.000000000000
  72      0.000000000000
  73      0.000000000000
  74      0.000000000000
  75      0.000000000000
  76      0.000000000000
  77      0.000000000000
  78      0.000000000000
  79      0.000000000000
  80      0.000000000000
  81      0.000000000000
  82      0.000000000000
  83      0.000000000000
  84      0.000000000000
  85      0.000000000000
  86      0.000000000000
  87      0.000000000000
  88      0.000000000000
  89      0.000000000000
 Ene=  -0.35685866959512E+02
 Spin= Alpha
 Occup=    1.000000
   1      0.288484360677
   2      0.159173931684
   3     -0.598776643252
   4     -0.446659497116
   5     -0.062620541292
   6     -0.024985724402
   7      0.004367633320
   8     -0.001173888347
   9      0.000389899111
  10     -0.000043825536
  11     -0.000279307269
  12      0.000186549629
  13     -0.000012430034
  14     -0.000079127747
  15      0.000052861144
  16     -0.000000522196
  17     -0.000003408880
  18      0.000002276489
  19      0.000008018042
  20      0.000051522326
  21     -0.000034419740
  22      0.000194099488
  23     -0.000025539305
  24     -0.000039808587
  25      0.000139969639
  26     -0.000321597441
  27     -0.000031860747
  28     -0.000005863563
  29      0.000024733983
  30     -0.000078126993
  31      0.000182611346
  32     -0.000048195535
  33     -0.000308771032
  34      0.000206272406
  35     -0.000000288624
  36     -0.000000722939
  37      0.000000642587
  38      0.000000263321
  39      0.000001033702
  40      0.000001170127
  41      0.000006422626
  42     -0.000002038303
  43     -0.000059679455
  44      0.000410969883
  45     -0.000016955917
  46     -0.000019105613
  47      0.000013891730
  48      0.000004310413
  49     -0.000147268908
  50      0.000095954415
  51     -0.000012413334
  52      0.000013034291
  53     -0.000008551958
  54      0.000007518859
  55     -0.000019914961
  56     -0.000002079033
  57     -0.000058961502
  58      0.000406038409
  59      0.000010350006
  60     -0.000023273991
  61      0.000014384351
  62     -0.000051827322
  63     -0.000138996301
  64      0.000095323625
  65     -0.000016725862
  66     -0.000002175879
  67      0.000001869461
  68      0.000009650711
  69     -0.000021667323
  70     -0.000023321046
  71     -0.000091203864
  72     -0.000006099878
  73      0.000003342947
  74     -0.000000043935
  75     -0.000023389289
  76     -0.000091420881
  77     -0.000006229411
  78      0.000001880725
  79     -0.000002405260
  80     -0.000023296304
  81     -0.000091145667
  82      0.000006718479
  83     -0.000000185366
  84     -0.000002219746
  85     -0.000023295634
  86     -0.000091114777
  87      0.000006944414
  88      0.000001397314
  89      0.000000294884
 Ene=  -0.35655881860838E+02
 Spin= Alpha
 Occup=    0.000000
   1      0.000000000000
   2      0.000000000000
   3      0.000000000000
   4      0.000000000000
   5      0.000000000000
   6      0.000000000000
   7      0.000000000000
   8      0.000000000000
   9      0.000000000000
  10      0.000000000000
  11      0.000000000000
  12      0.000000000000
  13      0.000000000000
  14      0.000000000000
  15      0.000000000000
  16      0.000000000000
  17      0.000000000000
  18      0.000000000000
  19      0.000000000000
  20      0.000000000000
  21      0.000000000000
  22      0.000000000000
  23      0.000000000000
  24      0.000000000000
  25      0.000000000000
  26      0.000000000000
  27      0.000000000000
  28      0.000000000000
  29      0.000000000000
  30      0.000000000000
  31      0.000000000000
  32      0.000000000000
  33      0.000000000000
  34      0.000000000000
  35      0.000000000000
  36      0.000000000000
  37      0.000000000000
  38      0.000000000000
  39      0.000000000000
  40      0.000000000000
  41      0.000000000000
  42      0.000000000000
  43      0.000000000000
  44      0.000000000000
  45      0.000000000000
  46      0.000000000000
  47      0.000000000000
  48      0.000000000000
  49      0.000000000000
  50      0.000000000000
  51      0.000000000000
  52      0.000000000000
  53      0.000000000000
  54      0.000000000000
  55      0.000000000000
  56      0.000000000000
  57      0.000000000000
  58      0.000000000000
  59      0.000000000000
  60      0.000000000000
  61      0.000000000000
  62      0.000000000000
  63      0.000000000000
  64      0.000000000000
  65      0.000000000000
  66      0.000000000000
  67      0.000000000000
  68      0.000000000000
  69      0.000000000000
  70      0.000000000000
  71      0.000000000000
  72      0.000000000000
  73      0.000000000000
  74      0.000000000000
  75      0.000000000000
  76      0.000000000000
  77      0.000000000000
  78      0.000000000000
  79      0.000000000000
  80      0.000000000000
  81      0.000000000000
  82      0.000000000000
  83      0.000000000000
  84      0.000000000000
  85      0.000000000000
  86      0.000000000000
  87      0.000000000000
  88      0.000000000000
  89      0.000000000000
 Ene=  -0.31283020196275E+02
 Spin= Alpha
 Occup=    1.000000
   1      0.000000020801
   2      0.000000011711
   3     -0.000000046531
   4     -0.000000028247
   5     -0.000000005941
   6      0.000000001899
   7      0.000000008218
   8     -0.000000145810
   9      0.000000101398
  10      0.067524085232
  11      0.540078372931
  12      0.824145150965
  13      0.001152071398
  14      0.009214656179
  15      0.014061348122
  16      0.000695868137
  17      0.005565747838
  18      0.008493132646
  19     -0.000151678280
  20     -0.001213135323
  21     -0.001851147713
  22      0.000000427056
  23      0.000003560163
  24      0.000001979249
  25      0.000025366445
  26      0.000010773923
  27      0.000000040986
  28      0.000000327982
  29      0.000000195867
  30      0.000002366240
  31      0.000001022245
  32      0.000030332034
  33      0.000242687647
  34      0.000370385239
  35     -0.000015128718
  36     -0.000048643891
  37     -0.000074212918
  38     -0.000007929488
  39      0.000017980558
  40     -0.000115745566
  41      0.000019818256
  42      0.000000003246
  43     -0.000000080708
  44      0.000000409750
  45      0.000000333590
  46      0.000002637969
  47      0.000004024241
  48      0.000000569219
  49      0.000004798281
  50      0.000007421879
  51      0.000000941054
  52      0.000004549381
  53      0.000006569197
  54      0.000002935592
  55      0.000000694625
  56      0.000000003284
  57     -0.000000057468
  58      0.000000074060
  59      0.000000324615
  60      0.000002636347
  61      0.000004017506
  62      0.000000561234
  63      0.000005305883
  64      0.000008157752
  65     -0.000000832074
  66     -0.000003549483
  67     -0.000006026220
  68      0.000004212657
  69      0.000002360070
  70      0.000001214248
  71     -0.000057392142
  72      0.000012332640
  73      0.000015322663
  74     -0.000001196089
  75     -0.000001271701
  76      0.000057122876
  77     -0.000011167726
  78     -0.000006310653
  79      0.000014870294
  80     -0.000001087509
  81      0.000057704705
  82      0.000008540693
  83     -0.000009290230
  84      0.000015220740
  85      0.000001053985
  86     -0.000057871796
  87     -0.000007432418
  88      0.000018292114
  89     -0.000001528069
 Ene=  -0.31263737925524E+02
 Spin= Alpha
 Occup=    1.000000
   1     -0.000130061084
   2     -0.000074647891
   3      0.000404078940
   4      0.000156607111
   5     -0.000078849193
   6     -0.000074502857
   7      0.000063007966
   8     -0.000010722449
   9     -0.000177292959
  10     -0.139897867189
  11     -0.812701227143
  12      0.544041084716
  13     -0.002304213497
  14     -0.013375296765
  15      0.008953901951
  16     -0.001476954759
  17     -0.008588720844
  18      0.005749333005
  19      0.000340817975
  20      0.001988877367
  21     -0.001331230113
  22      0.000009158714
  23     -0.000005225063
  24      0.000004715876
  25     -0.000012190351
  26      0.000029173809
  27      0.000000138063
  28     -0.000001166630
  29      0.000001852761
  30     -0.000005188538
  31      0.000012284954
  32     -0.000088218057
  33     -0.000522813290
  34      0.000349794352
  35      0.000004188773
  36      0.000009674067
  37     -0.000007039162
  38     -0.000002391442
  39      0.000000234095
  40     -0.000001503037
  41     -0.000009354057
  42     -0.000001099470
  43      0.000068325755
  44     -0.000002847536
  45     -0.000008182280
  46     -0.000005330482
  47      0.000004164873
  48      0.000007703600
  49     -0.000035211341
  50      0.000022074297
  51      0.000001743263
  52     -0.000019228854
  53      0.000015165231
  54     -0.000012305661
  55      0.000032472445
  56     -0.000001109719
  57      0.000068536420
  58     -0.000000045093
  59      0.000006216731
  60     -0.000007366105
  61      0.000004310676
  62     -0.000015771999
  63     -0.000029946693
  64      0.000020941868
  65      0.000010330462
  66      0.000010698389
  67     -0.000005175317
  68     -0.000016650441
  69      0.000036226550
  70     -0.000018911797
  71      0.000087637251
  72     -0.000014314396
  73     -0.000010959957
  74      0.000013865965
  75     -0.000019059547
  76      0.000087246152
  77     -0.000014852160
  78     -0.000015947754
  79      0.000006116160
  80     -0.000018848503
  81      0.000086399916
  82      0.000009207453
  83     -0.000019456540
  84      0.000006291526
  85     -0.000018818895
  86      0.000086439103
  87      0.000009884018
  88     -0.000014306616
  89      0.000014248946
 Ene=  -0.31261304251018E+02
 Spin= Alpha
 Occup=    1.000000
   1     -0.000001609734
   2     -0.000000920240
   3      0.000005061732
   4      0.000001982481
   5     -0.000001112043
   6     -0.000000878272
   7      0.000000749643
   8      0.000000373676
   9     -0.000002508141
  10      0.975627379125
  11     -0.153929533642
  12      0.020937658670
  13      0.016131784831
  14     -0.002543690675
  15      0.000345211847
  16      0.010221055015
  17     -0.001613888126
  18      0.000220179698
  19     -0.002284865036
  20      0.000361800337
  21     -0.000049894046
  22      0.000013919330
  23      0.000049407059
  24     -0.000033651976
  25     -0.000007140048
  26      0.000006144822
  27     -0.000002086326
  28     -0.000007184983
  29      0.000004893614
  30      0.000000992528
  31     -0.000000794178
  32      0.000465387431
  33     -0.000075008547
  34      0.000011021623
  35     -0.000008399079
  36      0.000001456267
  37      0.000002908084
  38     -0.000006724504
  39      0.000014940593
  40      0.000000880494
  41     -0.000003079589
  42     -0.000001739959
  43     -0.000022328848
  44      0.000353359325
  45     -0.000003773595
  46     -0.000007775533
  47      0.000005384438
  48     -0.000179136509
  49      0.000051863068
  50     -0.000018910500
  51      0.000003827463
  52      0.000017086848
  53     -0.000012149432
  54      0.000000738210
  55     -0.000005320905
  56      0.000001742030
  57      0.000024299960
  58     -0.000354432588
  59     -0.000001153974
  60      0.000008454499
  61     -0.000005436556
  62     -0.000187257753
  63      0.000000923587
  64      0.000014350855
  65      0.000005594422
  66      0.000015832099
  67     -0.000010190202
  68     -0.000005838014
  69      0.000010198814
  70      0.000002172796
  71     -0.000051159530
  72      0.000016726504
  73      0.000005942195
  74     -0.000006257676
  75      0.000002312213
  76     -0.000050811402
  77      0.000016808090
  78      0.000006822721
  79     -0.000004824192
  80     -0.000002695767
  81      0.000053435154
  82      0.000014214285
  83     -0.000011904453
  84      0.000005484782
  85     -0.000002601583
  86      0.000053765076
  87      0.000014374142
  88     -0.000010910894
  89      0.000007106313
 Ene=  -0.31248189800743E+02
 Spin= Alpha
 Occup=    0.000000
   1      0.000000000000
   2      0.000000000000
   3      0.000000000000
   4      0.000000000000
   5      0.000000000000
   6      0.000000000000
   7      0.000000000000
   8      0.000000000000
   9      0.000000000000
  10      0.000000000000
  11      0.000000000000
  12      0.000000000000
  13      0.000000000000
  14      0.000000000000
  15      0.000000000000
  16      0.000000000000
  17      0.000000000000
  18      0.000000000000
  19      0.000000000000
  20      0.000000000000
  21      0.000000000000
  22      0.000000000000
  23      0.000000000000
  24      0.000000000000
  25      0.000000000000
  26      0.000000000000
  27      0.000000000000
  28      0.000000000000
  29      0.000000000000
  30      0.000000000000
  31      0.000000000000
  32      0.000000000000
  33      0.000000000000
  34      0.000000000000
  35      0.000000000000
  36      0.000000000000
  37      0.000000000000
  38      0.000000000000
  39      0.000000000000
  40      0.000000000000
  41      0.000000000000
  42      0.000000000000
  43      0.000000000000
  44      0.000000000000
  45      0.000000000000
  46      0.000000000000
  47      0.000000000000
  48      0.000000000000
  49      0.000000000000
  50      0.000000000000
  51      0.000000000000
  52      0.000000000000
  53      0.000000000000
  54      0.000000000000
  55      0.000000000000
  56      0.000000000000
  57      0.000000000000
  58      0.000000000000
  59      0.000000000000
  60      0.000000000000
  61      0.000000000000
  62      0.000000000000
  63      0.000000000000
  64      0.000000000000
  65      0.000000000000
  66      0.000000000000
  67      0.000000000000
  68      0.000000000000
  69      0.000000000000
  70      0.000000000000
  71      0.000000000000
  72      0.000000000000
  73      0.000000000000
  74      0.000000000000
  75      0.000000000000
  76      0.000000000000
  77      0.000000000000
  78      0.000000000000
  79      0.000000000000
  80      0.000000000000
  81      0.000000000000
  82      0.000000000000
  83      0.000000000000
  84      0.000000000000
  85      0.000000000000
  86      0.000000000000
  87      0.000000000000
  88      0.000000000000
  89      0.000000000000
 Ene=  -0.31243642434267E+02
 Spin= Alpha
 Occup=   -0.000000
   1      0.000000000000
   2      0.000000000000
   3      0.000000000000
   4      0.000000000000
   5      0.000000000000
   6      0.000000000000
   7      0.000000000000
   8      0.000000000000
   9      0.000000000000
  10      0.000000000000
  11      0.000000000000
  12      0.000000000000
  13      0.000000000000
  14      0.000000000000
  15      0.000000000000
  16      0.000000000000
  17      0.000000000000
  18      0.000000000000
  19      0.000000000000
  20      0.000000000000
  21      0.000000000000
  22      0.000000000000
  23      0.000000000000
  24      0.000000000000
  25      0.000000000000
  26      0.000000000000
  27      0.000000000000
  28      0.000000000000
  29      0.000000000000
  30      0.000000000000
  31      0.000000000000
  32      0.000000000000
  33      0.000000000000
  34      0.000000000000
  35      0.000000000000
  36      0.000000000000
  37      0.000000000000
  38      0.000000000000
  39      0.000000000000
  40      0.000000000000
  41      0.000000000000
  42      0.000000000000
  43      0.000000000000
  44      0.000000000000
  45      0.000000000000
  46      0.000000000000
  47      0.000000000000
  48      0.000000000000
  49      0.000000000000
  50      0.000000000000
  51      0.000000000000
  52      0.000000000000
  53      0.000000000000
  54      0.000000000000
  55      0.000000000000
  56      0.000000000000
  57      0.000000000000
  58      0.000000000000
  59      0.000000000000
  60      0.000000000000
  61      0.000000000000
  62      0.000000000000
  63      0.000000000000
  64      0.000000000000
  65      0.000000000000
  66      0.000000000000
  67      0.000000000000
  68      0.000000000000
  69      0.000000000000
  70      0.000000000000
  71      0.000000000000
  72      0.000000000000
  73      0.000000000000
  74      0.000000000000
  75      0.000000000000
  76      0.000000000000
  77      0.000000000000
  78      0.000000000000
  79      0.000000000000
  80      0.000000000000
  81      0.000000000000
  82      0.000000000000
  83      0.000000000000
  84      0.000000000000
  85      0.000000000000
  86      0.000000000000
  87      0.000000000000
  88      0.000000000000
  89      0.000000000000
 Ene=  -0.31242981339304E+02
 Spin= Alpha
 Occup=    0.000000
   1      0.000000000000
   2      0.000000000000
   3      0.000000000000
   4      0.000000000000
   5      0.000000000000
   6      0.000000000000
   7      0.000000000000
   8      0.000000000000
   9      0.000000000000
  10      0.000000000000
  11      0.000000000000
  12      0.000000000000
  13      0.000000000000
  14      0.000000000000
  15      0.000000000000
  16      0.000000000000
  17      0.000000000000
  18      0.000000000000
  19      0.000000000000
  20      0.000000000000
  21      0.000000000000
  22      0.000000000000
  23      0.000000000000
  24      0.000000000000
  25      0.000000000000
  26      0.000000000000
  27      0.000000000000
  28      0.000000000000
  29      0.000000000000
  30      0.000000000000
  31      0.000000000000
  32      0.000000000000
  33      0.000000000000
  34      0.000000000000
  35      0.000000000000
  36      0.000000000000
  37      0.000000000000
  38      0.000000000000
  39      0.000000000000
  40      0.000000000000
  41      0.000000000000
  42      0.000000000000
  43      0.000000000000
  44      0.000000000000
  45      0.000000000000
  46      0.000000000000
  47      0.000000000000
  48      0.000000000000
  49      0.000000000000
  50      0.000000000000
  51      0.000000000000
  52      0.000000000000
  53      0.000000000000
  54      0.000000000000
  55      0.000000000000
  56      0.000000000000
  57      0.000000000000
  58      0.000000000000
  59      0.000000000000
  60      0.000000000000
  61      0.000000000000
  62      0.000000000000
  63      0.000000000000
  64      0.000000000000
  65      0.000000000000
  66      0.000000000000
  67      0.000000000000
  68      0.000000000000
  69      0.000000000000
  70      0.000000000000
  71      0.000000000000
  72      0.000000000000
  73      0.000000000000
  74      0.000000000000
  75      0.000000000000
  76      0.000000000000
  77      0.000000000000
  78      0.000000000000
  79      0.000000000000
  80      0.000000000000
  81      0.000000000000
  82      0.000000000000
  83      0.000000000000
  84      0.000000000000
  85      0.000000000000
  86      0.000000000000
  87      0.000000000000
  88      0.000000000000
  89      0.000000000000
 Ene=  -0.10243160737569E+02
 Spin= Alpha
 Occup=    0.000000
   1      0.000000000000
   2      0.000000000000
   3      0.000000000000
   4      0.000000000000
   5      0.000000000000
   6      0.000000000000
   7      0.000000000000
   8      0.000000000000
   9      0.000000000000
  10      0.000000000000
  11      0.000000000000
  12      0.000000000000
  13      0.000000000000
  14      0.000000000000
  15      0.000000000000
  16      0.000000000000
  17      0.000000000000
  18      0.000000000000
  19      0.000000000000
  20      0.000000000000
  21      0.000000000000
  22      0.000000000000
  23      0.000000000000
  24      0.000000000000
  25      0.000000000000
  26      0.000000000000
  27      0.000000000000
  28      0.000000000000
  29      0.000000000000
  30      0.000000000000
  31      0.000000000000
  32      0.000000000000
  33      0.000000000000
  34      0.000000000000
  35      0.000000000000
  36      0.000000000000
  37      0.000000000000
  38      0.000000000000
  39      0.000000000000
  40      0.000000000000
  41      0.000000000000
  42      0.000000000000
  43      0.000000000000
  44      0.000000000000
  45      0.000000000000
  46      0.000000000000
  47      0.000000000000
  48      0.000000000000
  49      0.000000000000
  50      0.000000000000
  51      0.000000000000
  52      0.000000000000
  53      0.000000000000
  54      0.000000000000
  55      0.000000000000
  56      0.000000000000
  57      0.000000000000
  58      0.000000000000
  59      0.000000000000
  60      0.000000000000
  61      0.000000000000
  62      0.000000000000
  63      0.000000000000
  64      0.000000000000
  65      0.000000000000
  66      0.000000000000
  67      0.000000000000
  68      0.000000000000
  69      0.000000000000
  70      0.000000000000
  71      0.000000000000
  72      0.000000000000
  73      0.000000000000
  74      0.000000000000
  75      0.000000000000
  76      0.000000000000
  77      0.000000000000
  78      0.000000000000
  79      0.000000000000
  80      0.000000000000
  81      0.000000000000
  82      0.000000000000
  83      0.000000000000
  84      0.000000000000
  85      0.000000000000
  86      0.000000000000
  87      0.000000000000
  88      0.000000000000
  89      0.000000000000
 Ene=  -0.10242856549055E+02
 Spin= Alpha
 Occup=    1.000000
   1      0.000001162188
   2      0.000001565821
   3     -0.000078662875
   4     -0.000157584066
   5      0.000165183491
   6      0.000244411244
   7     -0.000129016621
   8     -0.011658765745
   9      0.001684894713
  10     -0.000001574022
  11     -0.000013938601
  12      0.000009289532
  13      0.000005483494
  14      0.000062949499
  15     -0.000041878078
  16      0.000003406456
  17     -0.000047938268
  18      0.000031670402
  19     -0.000070054945
  20     -0.000388902351
  21      0.000259592545
  22      0.000101593955
  23     -0.000040546466
  24      0.000030525943
  25     -0.000086211087
  26      0.000206300838
  27     -0.000129711502
  28      0.000060787573
  29     -0.000038713832
  30      0.000079033955
  31     -0.000192740245