 Entering Link 1 = D:\Gaussian16W\G16W\l1.exe PID=     39296.
  
 Copyright (c) 1988,1990,1992,1993,1995,1998,2003,2009,2016,
            Gaussian, Inc.  All Rights Reserved.
  
 This is part of the Gaussian(R) 16 program.  It is based on
 the Gaussian(R) 09 system (copyright 2009, Gaussian, Inc.),
 the Gaussian(R) 03 system (copyright 2003, Gaussian, Inc.),
 the Gaussian(R) 98 system (copyright 1998, Gaussian, Inc.),
 the Gaussian(R) 94 system (copyright 1995, Gaussian, Inc.),
 the Gaussian 92(TM) system (copyright 1992, Gaussian, Inc.),
 the Gaussian 90(TM) system (copyright 1990, Gaussian, Inc.),
 the Gaussian 88(TM) system (copyright 1988, Gaussian, Inc.),
 the Gaussian 86(TM) system (copyright 1986, Carnegie Mellon
 University), and the Gaussian 82(TM) system (copyright 1983,
 Carnegie Mellon University). Gaussian is a federally registered
 trademark of Gaussian, Inc.
  
 This software contains proprietary and confidential information,
 including trade secrets, belonging to Gaussian, Inc.
  
 This software is provided under written license and may be
 used, copied, transmitted, or stored only in accord with that
 written license.
  
 The following legend is applicable only to US Government
 contracts under FAR:
  
                    RESTRICTED RIGHTS LEGEND
  
 Use, reproduction and disclosure by the US Government is
 subject to restrictions as set forth in subparagraphs (a)
 and (c) of the Commercial Computer Software - Restricted
 Rights clause in FAR 52.227-19.
  
 Gaussian, Inc.
 340 Quinnipiac St., Bldg. 40, Wallingford CT 06492
  
  
 ---------------------------------------------------------------
 Warning -- This program may not be used in any manner that
 competes with the business of Gaussian, Inc. or will provide
 assistance to any competitor of Gaussian, Inc.  The licensee
 of this program is prohibited from giving any competitor of
 Gaussian, Inc. access to this program.  By using this program,
 the user acknowledges that Gaussian, Inc. is engaged in the
 business of creating and licensing software in the field of
 computational chemistry and represents and warrants to the
 licensee that it is not a competitor of Gaussian, Inc. and that
 it will not use this program in any manner prohibited above.
 ---------------------------------------------------------------
  

 Cite this work as:
 Gaussian 16, Revision A.03,
 M. J. Frisch, G. W. Trucks, H. B. Schlegel, G. E. Scuseria, 
 M. A. Robb, J. R. Cheeseman, G. Scalmani, V. Barone, 
 G. A. Petersson, H. Nakatsuji, X. Li, M. Caricato, A. V. Marenich, 
 J. Bloino, B. G. Janesko, R. Gomperts, B. Mennucci, H. P. Hratchian, 
 J. V. Ortiz, A. F. Izmaylov, J. L. Sonnenberg, D. Williams-Young, 
 F. Ding, F. Lipparini, F. Egidi, J. Goings, B. Peng, A. Petrone, 
 T. Henderson, D. Ranasinghe, V. G. Zakrzewski, J. Gao, N. Rega, 
 G. Zheng, W. Liang, M. Hada, M. Ehara, K. Toyota, R. Fukuda, 
 J. Hasegawa, M. Ishida, T. Nakajima, Y. Honda, O. Kitao, H. Nakai, 
 T. Vreven, K. Throssell, J. A. Montgomery, Jr., J. E. Peralta, 
 F. Ogliaro, M. J. Bearpark, J. J. Heyd, E. N. Brothers, K. N. Kudin, 
 V. N. Staroverov, T. A. Keith, R. Kobayashi, J. Normand, 
 K. Raghavachari, A. P. Rendell, J. C. Burant, S. S. Iyengar, 
 J. Tomasi, M. Cossi, J. M. Millam, M. Klene, C. Adamo, R. Cammi, 
 J. W. Ochterski, R. L. Martin, K. Morokuma, O. Farkas, 
 J. B. Foresman, and D. J. Fox, Gaussian, Inc., Wallingford CT, 2016.
 
 ******************************************
 Gaussian 16:  EM64W-G16RevA.03 17-Dec-2016
                28-Mar-2025 
 ******************************************
 %mem=1500MB
 %nprocshared=4
 Will use up to    4 processors via shared memory.
 %chk=E:\VSCode_TRESC\tests\FeO+\Gaussian\Scratch\FeO+.chk
 -------------------------------------------------------------
 # upbe1pbe/gen nosymm iop(3/32=2,3/27=9) int=nobasistransform
 -------------------------------------------------------------
 1/38=1,172=1/1;
 2/12=2,15=1,17=6,18=5,40=1/2;
 3/5=7,11=2,25=1,27=9,30=1,32=2,60=-1,74=-13,116=2/1,2,3;
 4//1;
 5/5=2,38=5/2;
 6/7=2,8=2,9=2,10=2,28=1/1;
 99/5=1,9=1/99;
 ----
 FeO+
 ----
 Symbolic Z-matrix:
 Charge =  1 Multiplicity = 6
 Fe                    6.75742   0.43591  -1.2046 
 O                     8.57742   0.43591  -1.2046 
 
                          Input orientation:                          
 ---------------------------------------------------------------------
 Center     Atomic      Atomic             Coordinates (Angstroms)
 Number     Number       Type             X           Y           Z
 ---------------------------------------------------------------------
      1         26           0        6.757421    0.435905   -1.204599
      2          8           0        8.577421    0.435905   -1.204599
 ---------------------------------------------------------------------
 Symmetry turned off by external request.
 Stoichiometry    FeO(1+,6)
 Framework group  C*V[C*(OFe)]
 Deg. of freedom     1
 Full point group                 C*V     NOp   4
 Rotational constants (GHZ):           0.0000000          12.2664390          12.2664390
 General basis read from cards:  (5D, 7F)
    55 basis functions,   106 primitive gaussians,    61 cartesian basis functions
    19 alpha electrons       14 beta electrons
       nuclear repulsion energy        60.4773955337 Hartrees.
 NAtoms=    2 NActive=    2 NUniq=    2 SFac= 1.00D+00 NAtFMM=   60 NAOKFM=F Big=F
 Integral buffers will be    131072 words long.
 Raffenetti 2 integral format.
 Two-electron integral symmetry is turned off.
 One-electron integrals computed using PRISM.
 NBasis=    55 RedAO= F EigKep=  0.00D+00  NBF=    55
 NBsUse=    55 1.00D-04 EigRej=  0.00D+00 NBFU=    55
 GSVD:  LWork=       -2769 too small for GESVD, short by       15254 words or       15254 for optimal perf.
 ExpMin= 3.37D-02 ExpMax= 6.09D+04 ExpMxC= 9.15D+03 IAcc=3 IRadAn=         5 AccDes= 0.00D+00
 Harris functional with IExCor= 1009 and IRadAn=       5 diagonalized for initial guess.
 HarFok:  IExCor= 1009 AccDes= 0.00D+00 IRadAn=         5 IDoV= 1 UseB2=F ITyADJ=14
 ICtDFT=  3500011 ScaDFX=  1.000000  1.000000  1.000000  1.000000
 FoFCou: FMM=F IPFlag=           0 FMFlag=      100000 FMFlg1=           0
         NFxFlg=           0 DoJE=T BraDBF=F KetDBF=T FulRan=T
         wScrn=  0.000000 ICntrl=       500 IOpCl=  0 I1Cent=   200000004 NGrid=           0
         NMat0=    1 NMatS0=      1 NMatT0=    0 NMatD0=    1 NMtDS0=    0 NMtDT0=    0
 Symmetry not used in FoFCou.
 Initial guess <Sx>= 0.0000 <Sy>= 0.0000 <Sz>= 2.5000 <S**2>= 8.7500 S= 2.5000
 Keep R1 and R2 ints in memory in canonical form, NReq=5908441.
 Requested convergence on RMS density matrix=1.00D-08 within 128 cycles.
 Requested convergence on MAX density matrix=1.00D-06.
 Requested convergence on             energy=1.00D-06.
 No special actions if energy rises.
 GSVD:  LWork=       -3465 too small for GESVD, short by       15950 words or       15950 for optimal perf.
 EnCoef did   100 forward-backward iterations
 EnCoef did   100 forward-backward iterations
 SCF Done:  E(UPBE1PBE) =  -1336.01291191     A.U. after   18 cycles
            NFock= 18  Conv=0.26D-08     -V/T= 1.9982
 <Sx>= 0.0000 <Sy>= 0.0000 <Sz>= 2.5000 <S**2>= 8.7685 S= 2.5031
 <L.S>= 0.000000000000E+00
 Annihilation of the first spin contaminant:
 S**2 before annihilation     8.7685,   after     8.7501

 **********************************************************************

            Population analysis using the SCF density.

 **********************************************************************

 Alpha  occ. eigenvalues -- -255.89657 -30.34966 -26.31900 -26.31900 -26.29551
 Alpha  occ. eigenvalues --  -19.48929  -3.88808  -2.68686  -2.68686  -2.63998
 Alpha  occ. eigenvalues --   -1.18936  -0.69782  -0.69782  -0.68902  -0.67832
 Alpha  occ. eigenvalues --   -0.67832  -0.59188  -0.59188  -0.56253
 Alpha virt. eigenvalues --   -0.35588  -0.19426  -0.19426  -0.09666  -0.04428
 Alpha virt. eigenvalues --    0.61688   0.61688   0.64640   0.64640   0.68335
 Alpha virt. eigenvalues --    0.83804   0.83804   0.89645   1.03368   1.09987
 Alpha virt. eigenvalues --    1.09987   1.22277   1.66670   2.33834   2.33834
 Alpha virt. eigenvalues --    2.42951   2.42951   2.72649   3.67098   3.67098
 Alpha virt. eigenvalues --    3.71404   3.71405   3.73403   3.73403   3.85367
 Alpha virt. eigenvalues --    7.82394   7.82394   8.01632  14.44179  54.29005
 Alpha virt. eigenvalues --  676.34130
  Beta  occ. eigenvalues -- -255.89622 -30.27458 -26.25244 -26.25244 -26.24294
  Beta  occ. eigenvalues --  -19.45267  -3.70170  -2.47225  -2.47225  -2.46653
  Beta  occ. eigenvalues --   -1.08485  -0.57679  -0.52570  -0.52570
  Beta virt. eigenvalues --   -0.35731  -0.35731  -0.34249  -0.34248  -0.33928
  Beta virt. eigenvalues --   -0.28549  -0.14186  -0.14186  -0.07995  -0.00382
  Beta virt. eigenvalues --    0.69352   0.69352   0.72918   0.75850   0.75850
  Beta virt. eigenvalues --    0.90912   0.90912   0.95211   1.10661   1.19129
  Beta virt. eigenvalues --    1.19129   1.27802   1.76296   2.45267   2.45267
  Beta virt. eigenvalues --    2.49270   2.49270   2.79143   3.83481   3.83481
  Beta virt. eigenvalues --    3.85575   3.85575   3.86749   3.86749   3.99146
  Beta virt. eigenvalues --    7.95277   7.95277   8.11873  14.57237  54.36919
  Beta virt. eigenvalues --  676.34532
          Condensed to atoms (all electrons):
               1          2
     1  Fe  24.511273   0.257993
     2  O    0.257993   7.972740
          Atomic-Atomic Spin Densities.
               1          2
     1  Fe   3.791114  -0.085067
     2  O   -0.085067   1.379020
 Mulliken charges and spin densities:
               1          2
     1  Fe   1.230734   3.706047
     2  O   -0.230734   1.293953
 Sum of Mulliken charges =   1.00000   5.00000
 Mulliken charges and spin densities with hydrogens summed into heavy atoms:
               1          2
     1  Fe   1.230734   3.706047
     2  O   -0.230734   1.293953
 Electronic spatial extent (au):  <R**2>=           6439.5293
 Charge=              1.0000 electrons
 Dipole moment (field-independent basis, Debye):
    X=             29.2029    Y=              2.0937    Z=             -5.7859  Tot=             29.8441
 Quadrupole moment (field-independent basis, Debye-Ang):
   XX=            156.7187   YY=            -13.2955   ZZ=             -7.2384
   XY=             12.7297   XZ=            -35.1778   YZ=             -2.5221
 Traceless Quadrupole moment (field-independent basis, Debye-Ang):
   XX=            111.3238   YY=            -58.6904   ZZ=            -52.6333
   XY=             12.7297   XZ=            -35.1778   YZ=             -2.5221
 Octapole moment (field-independent basis, Debye-Ang**2):
  XXX=            621.3444  YYY=            -18.1824  ZZZ=             42.9497  XYY=           -100.5392
  XXY=             68.3145  XXZ=           -188.7833  XZZ=            -63.7130  YZZ=             -3.1553
  YYZ=             16.0157  XYZ=            -15.3342
 Hexadecapole moment (field-independent basis, Debye-Ang**3):
 XXXX=           -242.5273 YYYY=            -25.4063 ZZZZ=           -122.9691 XXXY=            270.8473
 XXXZ=           -748.4711 YYYX=           -136.3144 YYYZ=             21.9025 ZZZX=            332.3362
 ZZZY=             18.7220 XXYY=           -775.7071 XXZZ=           -578.0776 YYZZ=            -25.1194
 XXYZ=            -82.2916 YYXZ=            121.1095 ZZXY=            -27.7728
 N-N= 6.047739553371D+01 E-N=-3.296425047610D+03  KE= 1.338376215198D+03
                          Isotropic Fermi Contact Couplings
        Atom                 a.u.       MegaHertz       Gauss      10(-4) cm-1
     1  Fe(57)             0.15064       4.36978       1.55925       1.45760
     2  O(17)              0.44133     -53.50609     -19.09230     -17.84771
 --------------------------------------------------------
       Center         ----  Spin Dipole Couplings  ----
                      3XX-RR        3YY-RR        3ZZ-RR
 --------------------------------------------------------
     1   Atom       -1.518281      0.759140      0.759140
     2   Atom       -2.266428      1.133214      1.133214
 --------------------------------------------------------
                        XY            XZ            YZ
 --------------------------------------------------------
     1   Atom        0.000000      0.000000      0.000000
     2   Atom        0.000000      0.000000      0.000000
 --------------------------------------------------------


 ---------------------------------------------------------------------------------
              Anisotropic Spin Dipole Couplings in Principal Axis System
 ---------------------------------------------------------------------------------

       Atom             a.u.   MegaHertz   Gauss  10(-4) cm-1        Axes

              Baa    -1.5183   -26.286    -9.379    -8.768  1.0000  0.0000  0.0000
     1 Fe(57) Bbb     0.7591    13.143     4.690     4.384  0.0000  0.3966  0.9180
              Bcc     0.7591    13.143     4.690     4.384  0.0000  0.9180 -0.3966
 
              Baa    -2.2664   163.997    58.518    54.704  1.0000  0.0000  0.0000
     2 O(17)  Bbb     1.1332   -81.999   -29.259   -27.352  0.0000  0.9191 -0.3940
              Bcc     1.1332   -81.999   -29.259   -27.352  0.0000  0.3940  0.9191
 

 ---------------------------------------------------------------------------------


 Test job not archived.
 1|1|UNPC-BATCOMPUTER|SP|UPBE1PBE|Gen|Fe1O1(1+,6)|DELL|28-Mar-2025|0||#
  upbe1pbe/gen nosymm iop(3/32=2,3/27=9) int=nobasistransform||FeO+||1,
 6|Fe,0,6.7574207,0.43590531,-1.20459949|O,0,8.5774207,0.43590531,-1.20
 459949||Version=EM64W-G16RevA.03|HF=-1336.0129119|S2=8.768473|S2-1=0.|
 S2A=8.750086|RMSD=2.555e-009|Dipole=-2.0896237,0.,0.|Quadrupole=82.766
 4885,-43.6348837,-39.1316049,9.4642135,-26.1538147,-1.8751351|PG=C*V [
 C*(O1Fe1)]||@


 MY GROUP MEETINGS AREN'T VERY STRUCTURED.
     -- PROF. M. S. GORDON, OCT. 5, 1984
 Job cpu time:       0 days  0 hours  0 minutes 10.0 seconds.
 Elapsed time:       0 days  0 hours  0 minutes  6.0 seconds.
 File lengths (MBytes):  RWF=      6 Int=      0 D2E=      0 Chk=      1 Scr=      1
 Normal termination of Gaussian 16 at Fri Mar 28 21:02:17 2025.
