[Molden Format]
[Title]
generated by TRESC, real part2 of MOs of job Ni0-C2H4
 
[Atoms] AU
Ni   1  28    1.8539796126    6.7825327278   -0.4903308426
 C   2   6    4.6704257640    4.7931727241    1.2726747479
 C   3   6    5.0465532453    4.7581863879   -1.3126919263
 H   4   1    5.6975577332    6.1191094603    2.4870942128
 H   5   1    3.7846974132    3.1964352679    2.2493349313
 H   6   1    4.4712691419    3.1312517299   -2.4574086438
 H   7   1    6.3839198639    6.0535352724   -2.2192553710
[GTO]
  1 0
 s  6 1.0
    71074.8032110000        0.0049184150
    10672.0209410000        0.0200173975
     2428.1389007000        0.0784715325
      685.5359514800        0.2482002663
      223.1007286300        0.4665280195
       76.8420140400        0.3374151926
 s  1 1.0
      148.7112201600        1.0000000000
 s  1 1.0
       17.4591549900        1.0000000000
 s  1 1.0
        7.1625280700        1.0000000000
 s  1 1.0
       12.5561371300        1.0000000000
 s  1 1.0
        2.0735740500        1.0000000000
 s  1 1.0
        0.8538264100        1.0000000000
 s  1 1.0
        0.1053676600        1.0000000000
 s  1 1.0
        0.0381340900        1.0000000000
 p  5 1.0
      916.7360866200        0.0107030171
      216.0613991300        0.0711467350
       68.3839148200        0.2646675976
       24.5938439500        0.5093159720
        9.1392960200        0.3283291628
 p  1 1.0
        4.7193371700        1.0000000000
 p  1 1.0
        1.8161849200        1.0000000000
 p  1 1.0
        0.6784075100        1.0000000000
 d  4 1.0
       47.0938321100        0.0346401353
       13.1464639700        0.1833736831
        4.4170548900        0.4455621030
        1.4771565100        0.5627236040
 d  1 1.0
        0.4373592200        1.0000000000
 p  1 1.0
        0.1465880000        1.0000000000
 f  1 1.0
        2.1740000000        1.0000000000
 
  2 0
 s  5 1.0
     1238.4016938000        0.0059599745
      186.2900499200        0.0422621111
       42.2511763500        0.1866575214
       11.6765579300        0.4675815865
        3.5930506500        0.4422897287
 s  1 1.0
        0.4024514700        1.0000000000
 s  1 1.0
        0.1309018300        1.0000000000
 p  3 1.0
        9.4680970600        0.0570294585
        2.0103545100        0.3130471495
        0.5477100500        0.7605135301
 p  1 1.0
        0.1526861400        1.0000000000
 d  1 1.0
        0.8000000000        1.0000000000
 
  3 0
 s  5 1.0
     1238.4016938000        0.0059599745
      186.2900499200        0.0422621111
       42.2511763500        0.1866575214
       11.6765579300        0.4675815865
        3.5930506500        0.4422897287
 s  1 1.0
        0.4024514700        1.0000000000
 s  1 1.0
        0.1309018300        1.0000000000
 p  3 1.0
        9.4680970600        0.0570294585
        2.0103545100        0.3130471495
        0.5477100500        0.7605135301
 p  1 1.0
        0.1526861400        1.0000000000
 d  1 1.0
        0.8000000000        1.0000000000
 
  4 0
 s  3 1.0
       13.0107010000        0.0391282527
        1.9622572000        0.2855840539
        0.4445379600        0.7689908602
 s  1 1.0
        0.1219496200        1.0000000000
 p  1 1.0
        0.8000000000        1.0000000000
 
  5 0
 s  3 1.0
       13.0107010000        0.0391282527
        1.9622572000        0.2855840539
        0.4445379600        0.7689908602
 s  1 1.0
        0.1219496200        1.0000000000
 p  1 1.0
        0.8000000000        1.0000000000
 
  6 0
 s  3 1.0
       13.0107010000        0.0391282527
        1.9622572000        0.2855840539
        0.4445379600        0.7689908602
 s  1 1.0
        0.1219496200        1.0000000000
 p  1 1.0
        0.8000000000        1.0000000000
 
  7 0
 s  3 1.0
       13.0107010000        0.0391282527
        1.9622572000        0.2855840539
        0.4445379600        0.7689908602
 s  1 1.0
        0.1219496200        1.0000000000
 p  1 1.0
        0.8000000000        1.0000000000
 
[5D]
[7F]
[9G]
[MO]
 Ene=   0.88331028600091E+00
 Spin= Alpha
 Occup=    0.000000
   1      0.000008141254
   2      0.000003598323
   3     -0.000020121162
   4     -0.000001063510
   5     -0.000026260636
   6      0.000051147920
   7      0.000191768308
   8     -0.002278132866
   9      0.000118594609
  10     -0.000001636729
  11     -0.000010641173
  12      0.000003814862
  13      0.000001534366
  14      0.000011210077
  15     -0.000004061374
  16      0.000002499546
  17      0.000019728029
  18     -0.000004974210
  19      0.000007365884
  20      0.000027979754
  21     -0.000034016315
  22      0.000667798135
  23     -0.000249709999
  24     -0.000060937133
  25     -0.000544236733
  26     -0.000513588070
  27     -0.001746925968
  28      0.000598467322
  29      0.000234491142
  30      0.001218595111
  31      0.001719412104
  32     -0.000230605760
  33     -0.001277260651
  34      0.001064755191
  35      0.000000723800
  36      0.000001927119
  37     -0.000001917846
  38     -0.000000567286
  39      0.000000822601
  40     -0.000000130965
  41      0.000002178844
  42      0.000107839514
  43     -0.001303720355
  44      0.003620388391
  45     -0.000005716616
  46      0.000309846037
  47      0.000127434376
  48      0.000243271602
  49     -0.001336633305
  50     -0.000270636199
  51      0.000065693714
  52     -0.000034894621
  53      0.000067074156
  54     -0.000331651451
  55     -0.000155844846
  56      0.000101530954
  57     -0.001231920938
  58      0.003156119428
  59      0.000101782115
  60      0.000283399629
  61      0.000129424046
  62     -0.000759603491
  63     -0.001127418171
  64     -0.000249813244
  65      0.000051415743
  66     -0.000089770709
  67     -0.000111164479
  68     -0.000326143205
  69     -0.000128174411
  70     -0.000291452506
  71     -0.000177929323
  72      0.000133011290
  73     -0.000333496669
  74      0.000039283232
  75     -0.000653739377
  76     -0.001160013177
  77     -0.000058441879
  78      0.000118637798
  79     -0.000096949827
  80     -0.000612852575
  81     -0.001119438142
  82      0.000092572806
  83      0.000101133177
  84     -0.000098657744
  85     -0.000283957189
  86     -0.000171320375
  87     -0.000222329871
  88     -0.000281762377
  89      0.000037291548
 Ene=   0.10568150778856E+01
 Spin= Alpha
 Occup=    0.000000
   1      0.000057513965
   2      0.000027792399
   3     -0.000381117898
   4     -0.000571167021
   5      0.000369461784
   6      0.001485152347
   7     -0.000932452520
   8     -0.000304507576
   9     -0.000840340304
  10     -0.000933433464
  11     -0.007330416356
  12     -0.010526228661
  13      0.000815729388
  14      0.006309991370
  15      0.009447859993
  16      0.003132312734
  17      0.024518167410
  18      0.034584541611
  19     -0.003379093952
  20     -0.025951626982
  21     -0.037017184667
  22     -0.006602831091
  23     -0.050560171654
  24     -0.029009860454
  25     -0.360296509411
  26     -0.155294576030
  27      0.009157924944
  28      0.070230260302
  29      0.040279305459
  30      0.500829866394
  31      0.217492327844
  32     -0.002162861799
  33     -0.018415219966
  34     -0.025641624269
  35      0.000009951838
  36      0.000039693009
  37      0.000012998904
  38      0.000171137294
  39     -0.000012539833
  40      0.000932888269
  41     -0.000168009977
  42     -0.000174253551
  43      0.000157938126
  44      0.000731987994
  45      0.001687815192
  46      0.014625906759
  47      0.025260308779
  48     -0.007561321907
  49     -0.067556165738
  50     -0.104099646504
  51      0.002516687136
  52     -0.004244808696
  53      0.028603231081
  54     -0.234524486830
  55     -0.103419634946
  56     -0.000146101622
  57     -0.000180778384
  58      0.003124708138
  59      0.001855572945
  60      0.014927989834
  61      0.025773017649
  62     -0.009153461193
  63     -0.073321260516
  64     -0.112918910856
  65     -0.009556749385
  66     -0.059748587279
  67     -0.063640107041
  68     -0.224378581747
  69     -0.090557608342
  70      0.023111212875
  71      0.076930240189
  72      0.040843222312
  73     -0.182112424583
  74      0.096785166169
  75     -0.024458570287
  76     -0.077143528725
  77     -0.043642333655
  78      0.163107342068
  79     -0.122371729525
  80     -0.027091276337
  81     -0.080839454010
  82      0.092238958244
  83      0.142550696339
  84     -0.120225608584
  85      0.025513110831
  86      0.080317335099
  87     -0.094237616063
  88     -0.161798157064
  89      0.094259055051
 Ene=   0.10693339418475E+01
 Spin= Alpha
 Occup=    0.000000
   1     -0.000001322066
   2     -0.000000634539
   3      0.000008640688
   4      0.000012996615
   5     -0.000008298729
   6     -0.000033689503
   7      0.000020973008
   8     -0.000004284723
   9      0.000020939073
  10     -0.000050428005
  11      0.000016145085
  12     -0.000004067213
  13      0.000205152138
  14     -0.000033457353
  15      0.000001387730
  16      0.000158972160
  17     -0.000060784102
  18      0.000018824326
  19     -0.000781772085
  20      0.000152871611
  21     -0.000021139700
  22     -0.000066577101
  23     -0.000251490836
  24     -0.000199709519
  25      0.000039807434
  26      0.000099097615
  27      0.000441034229
  28      0.001723958689
  29      0.000797902589
  30     -0.000256990253
  31     -0.000225219689
  32      0.001402507273
  33     -0.000188970585
  34      0.000003314593
  35      0.000003441817
  36     -0.000005757402
  37     -0.000000982811
  38     -0.000017460685
  39     -0.000003581857
  40      0.000003209004
  41      0.000000219239
  42     -0.000018509829
  43      0.000737255306
  44     -0.005764962293
  45      0.000092764342
  46      0.000237731747
  47      0.000415570551
  48      0.001247556928
  49     -0.003000850825
  50     -0.005459821046
  51     -0.000004711696
  52      0.000241925586
  53      0.000200308668
  54      0.000282655188
  55      0.000132690892
  56      0.000026596623
  57     -0.000741425174
  58      0.005688935684
  59      0.000038440346
  60     -0.000188511875
  61     -0.000462473031
  62      0.001919024338
  63      0.002519010468
  64      0.005536713535
  65      0.000058529469
  66      0.000088101739
  67      0.000192486622
  68     -0.000285398066
  69     -0.000203143099
  70      0.001872386158
  71      0.002110223437
  72      0.000295851338
  73      0.000316237626
  74     -0.000444880827
  75     -0.001040321095
  76     -0.001488178855
  77     -0.000280586549
  78     -0.000390416628
  79      0.000012449097
  80      0.001074096235
  81      0.001506126699
  82     -0.000170905691
  83      0.000465908175
  84     -0.000022773568
  85     -0.001845772435
  86     -0.002108378355
  87      0.000195873263
  88     -0.000322234944
  89      0.000412817776
 Ene=   0.11176967039389E+01
 Spin= Alpha
 Occup=    0.000000
   1     -0.005348954397
   2     -0.002665337518
   3      0.045986368398
   4      0.078604422694
   5     -0.059396821855
   6     -0.186546528423
   7      0.185281182953
   8     -0.612057195787
   9      0.121510771837
  10      0.008499089232
  11      0.054189699194
  12     -0.036668956694
  13     -0.005302095597
  14     -0.033651917825
  15      0.023418708905
  16     -0.038759253824
  17     -0.246760738664
  18      0.166470419826
  19      0.053579319219
  20      0.340252842178
  21     -0.231197474717
  22      0.260369902517
  23     -0.090691036692
  24      0.047613856788
  25     -0.117382113771
  26      0.284519629385
  27     -0.337850785670
  28      0.116521427923
  29     -0.059117871864
  30      0.142383207729
  31     -0.347489826596
  32     -0.055842074666
  33     -0.367891026165
  34      0.246882266780
  35     -0.000494758522
  36     -0.001218999181
  37      0.000827764623
  38      0.000254632670
  39     -0.000531535270
  40     -0.000309851967
  41     -0.001600739753
  42      0.040124965026
  43     -0.268503632013
  44      0.462007567167
  45      0.050543583570
  46      0.208760909568
  47     -0.140963648465
  48     -0.077880981098
  49     -0.289862906691
  50      0.195768449478
  51      0.027115712616
  52      0.235857895042
  53     -0.164739237560
  54      0.013188684859
  55     -0.083034716126
  56      0.040460887805
  57     -0.272917912208
  58      0.490293790011
  59      0.014989627823
  60      0.214862789824
  61     -0.142194163443
  62     -0.005662392159
  63     -0.303266393109
  64      0.199973498052
  65     -0.092729655408
  66     -0.202749730061
  67      0.132893503686
  68      0.074535534176
  69     -0.133003327058
  70      0.002127953761
  71     -0.065281346007
  72      0.057142814446
  73      0.095234753930
  74     -0.100360435205
  75      0.001808735047
  76     -0.065205038126
  77      0.060744108395
  78      0.128294170279
  79     -0.055399090952
  80      0.000546691208
  81     -0.066412468982
  82     -0.020472426425
  83      0.140166510112
  84     -0.056019428348
  85      0.000412376696
  86     -0.067255525952
  87     -0.025139012211
  88      0.106800712230
  89     -0.101690892117
 Ene=   0.11339617338846E+01
 Spin= Alpha
 Occup=    0.000000
   1      0.000000103849
   2      0.000000051280
   3     -0.000000495380
   4     -0.000000470215
   5      0.000000167927
   6      0.000001494994
   7      0.000001137124
   8     -0.000052573687
   9      0.000007352803
  10      0.000759248860
  11     -0.000117110123
  12      0.000002148114
  13     -0.001776279239
  14      0.000272053239
  15     -0.000007933088
  16     -0.002501120996
  17      0.000386700649
  18     -0.000005818421
  19      0.006788627783
  20     -0.001043002239
  21      0.000024974110
  22     -0.000414012854
  23     -0.001538266922
  24      0.000589851960
  25      0.000215114790
  26     -0.000112209079
  27      0.001289502699
  28      0.004736359839
  29     -0.002031727156
  30     -0.000692009596
  31      0.000374175292
  32      0.000079710937
  33     -0.000025867037
  34      0.000044244505
  35      0.000000373684
  36     -0.000002743979
  37      0.000001221346
  38     -0.000009728685
  39      0.000005357177
  40      0.000002109587
  41     -0.000001211292
  42     -0.000248396197
  43      0.004570700219
  44     -0.030467324815
  45      0.000133271001
  46     -0.000080587724
  47      0.000274992559
  48      0.008349034343
  49     -0.001618206449
  50     -0.002456056240
  51     -0.000180146459
  52      0.000573496785
  53     -0.000202794633
  54      0.000081962921
  55     -0.000070429440
  56      0.000250096420
  57     -0.004607551851
  58      0.030571443977
  59      0.000152468415
  60      0.000029884697
  61     -0.000277386991
  62      0.008388787845
  63     -0.000832173638
  64      0.002710905730
  65      0.000434058771
  66      0.000348905610
  67     -0.000169644383
  68     -0.000261054997
  69      0.000121947554
  70      0.002402782893
  71      0.003319681386
  72      0.000621021655
  73      0.000667317478
  74     -0.000624081463
  75      0.001316339339
  76      0.001915185844
  77      0.000330499879
  78      0.000424489292
  79     -0.000441439282
  80     -0.001333541000
  81     -0.001914578420
  82      0.000194380580
  83     -0.000447065469
  84      0.000424142819
  85     -0.002419137822
  86     -0.003348666063
  87      0.000373793895
  88     -0.000860256272
  89      0.000669587529
 Ene=   0.11816075526159E+01
 Spin= Alpha
 Occup=    0.000000
   1     -0.002088965039
   2     -0.000974053423
   3      0.010643977336
   4      0.013237533258
   5     -0.006047261373
   6     -0.038532751499
   7      0.003940415066
   8      0.240151781937
   9     -0.015934578348
  10      0.001515002210
  11      0.009801834642
  12     -0.007105322641
  13     -0.000976853986
  14     -0.006165787157
  15      0.004902713832
  16     -0.006795193204
  17     -0.043995106340
  18      0.031456760895
  19      0.008804475496
  20      0.056516127287
  21     -0.041516007918
  22     -0.372779388566
  23      0.078576161830
  24      0.019891639538
  25     -0.097815264014
  26      0.215533125945
  27      0.546033845092
  28     -0.112828204514
  29     -0.032718462016
  30      0.153585282472
  31     -0.344607696316
  32      0.019934140595
  33      0.127477108414
  34     -0.085009771227
  35     -0.000168100651
  36     -0.000419466099
  37      0.000287194125
  38      0.000080659796
  39     -0.000174745084
  40     -0.000076493325
  41     -0.000500429767
  42     -0.013718896465
  43      0.179806676420
  44     -0.460684601485
  45      0.008099422231
  46      0.005011079413
  47     -0.004042213268
  48     -0.060222591291
  49      0.065174741458
  50     -0.040476049804
  51     -0.041729404297
  52      0.018987710711
  53     -0.008915318660
  54      0.010604007911
  55     -0.032228178759
  56     -0.013488023284
  57      0.178442340682
  58     -0.454377938384
  59     -0.006993239735
  60      0.007393990480
  61     -0.005088498301
  62      0.081355029635
  63      0.048135667768
  64     -0.032866588740
  65     -0.044741371132
  66      0.008048779958
  67     -0.002382883342
  68      0.011857267296
  69     -0.033651385300
  70      0.057874641456
  71      0.111299299577
  72     -0.022467915730
  73      0.051436649483
  74      0.000413024033
  75      0.056828282154
  76      0.110320705098
  77     -0.026411111939
  78      0.025454084904
  79     -0.046640259604
  80      0.058325699646
  81      0.112224031971
  82      0.033744609351
  83      0.017364101858
  84     -0.045941982173
  85      0.056429301142
  86      0.109138384171
  87      0.036860752302
  88      0.042585635011
  89      0.002130267450
 Ene=   0.12458841682315E+01
 Spin= Alpha
 Occup=    0.000000
   1      0.000003304233
   2      0.000001538226
   3     -0.000016574827
   4     -0.000020287272
   5      0.000008936675
   6      0.000059702957
   7     -0.000003732711
   8     -0.000420948665
   9      0.000032587696
  10     -0.000003943091
  11     -0.000028660800
  12     -0.000007321184
  13      0.000004745871
  14      0.000019143158
  15      0.000006342826
  16      0.000016715715
  17      0.000124502970
  18      0.000023338667
  19     -0.000029878815
  20     -0.000161349795
  21     -0.000024836022
  22      0.000742500914
  23     -0.000083382465
  24      0.000098697380
  25      0.000233300010
  26     -0.000387603683
  27     -0.000994858908
  28      0.000108002750
  29     -0.000149955957
  30     -0.000448769070
  31      0.000528901312
  32     -0.000005009230
  33     -0.000255031385
  34      0.000094369150
  35      0.000000322201
  36      0.000000430913
  37     -0.000000401249
  38     -0.000000755873
  39     -0.000000049474
  40      0.000001671675
  41      0.000000525897
  42      0.000024739708
  43     -0.000299589720
  44      0.000586605357
  45      0.000009031443
  46      0.000043386788
  47      0.000061006075
  48      0.000066954443
  49     -0.000538674500
  50     -0.000590425548
  51      0.000094895978
  52      0.000020822361
  53      0.000099093573
  54     -0.000442512740
  55     -0.000128703190
  56      0.000025351389
  57     -0.000346767365
  58      0.000951518870
  59     -0.000002500588
  60     -0.000063553701
  61     -0.000101702301
  62      0.000003505268
  63      0.000443328405
  64      0.000919523886
  65      0.000095031371
  66      0.000045036771
  67      0.000125383015
  68      0.000140757509
  69      0.000121758179
  70      0.000051792916
  71      0.000107085659
  72      0.000217646590
  73     -0.000692577119
  74      0.000302766253
  75     -0.000223110279
  76     -0.000436533896
  77     -0.000116996854
  78      0.000507787448
  79     -0.000312345949
  80      0.000095673085
  81      0.000163055141
  82     -0.000323040150
  83     -0.000192267074
  84      0.000339113501
  85     -0.000323213452
  86     -0.000545993614
  87      0.000198676688
  88      0.000182634002
  89     -0.000093016000
 Ene=   0.12463516136846E+01
 Spin= Alpha
 Occup=    0.000000
   1     -0.000000431652
   2     -0.000000224255
   3      0.000001528464
   4      0.000000010785
   5      0.000001064681
   6     -0.000002662803
   7     -0.000011641427
   8      0.000166361922
   9     -0.000016731295
  10      0.000018840075
  11     -0.000009876005
  12     -0.000013412299
  13      0.000001443988
  14      0.000004474386
  15      0.000011571818
  16     -0.000078667464
  17      0.000042154107
  18      0.000058508023
  19      0.000031996210
  20     -0.000045944631
  21     -0.000086841924
  22      0.000548788927
  23      0.003771011229
  24      0.006407423934
  25     -0.000522823737
  26     -0.000695034540
  27     -0.000468494331
  28     -0.003889799789
  29     -0.007544824246
  30      0.000461411432
  31      0.000747868702
  32      0.000558271322
  33     -0.000018396372
  34     -0.000093611049
  35     -0.000002509406
  36     -0.000025348526
  37     -0.000013202090
  38     -0.000110215281
  39     -0.000044776929
  40      0.000021268172
  41      0.000006073082
  42     -0.000020352830
  43      0.000623131751
  44     -0.003993550332
  45      0.000706230853
  46      0.005254834996
  47      0.008046540492
  48     -0.005211180505
  49     -0.049269115383
  50     -0.075567131304
  51      0.001007491551
  52      0.003344543154
  53      0.008527273339
  54     -0.025808106680
  55     -0.011999180808
  56     -0.000000857569
  57     -0.000377633873
  58      0.003503643040
  59     -0.000591982118
  60     -0.005320583020
  61     -0.008072765858
  62      0.007042302916
  63      0.049185231818
  64      0.075639183537
  65      0.001916435233
  66      0.010176590166
  67      0.012297778477
  68      0.023381400646
  69      0.009077056311
  70      0.018045876198
  71      0.031339698325
  72      0.016573056682
  73     -0.040602590791
  74      0.016126100262
  75     -0.017389974635
  76     -0.030673955440
  77     -0.017505981898
  78      0.032529278641
  79     -0.029001765274
  80      0.017462129458
  81      0.030819664670
  82     -0.026805041027
  83     -0.025814884315
  84      0.028239155257
  85     -0.018011492799
  86     -0.031292872957
  87      0.027982195920
  88      0.033974724951
  89     -0.015295810214
 Ene=   0.12537144781828E+01
 Spin= Alpha
 Occup=    0.000000
   1     -0.000000059097
   2     -0.000000024858
   3     -0.000000046649
   4     -0.000000619489
   5      0.000000708920
   6      0.000000989306
   7     -0.000004107560
   8      0.000059612113
   9     -0.000013105839
  10      0.000247998860
  11      0.000024409197
  12      0.000089684126
  13     -0.000739568418
  14      0.000034125081
  15     -0.000110289123
  16     -0.000831257880
  17     -0.000115442874
  18     -0.000350760937
  19      0.003043799913
  20     -0.000040105335
  21      0.000605042375
  22     -0.000117153494
  23     -0.000797182816
  24     -0.004228832621
  25     -0.000217618771
  26      0.000454345548
  27     -0.000240165942
  28     -0.000167255292
  29      0.008374332245
  30      0.000703193728
  31     -0.000919959374
  32     -0.004810997118
  33      0.000704052025
  34     -0.000110180601
  35     -0.000016289272
  36     -0.000000245605
  37     -0.000007990414
  38     -0.000028065059
  39     -0.000026940183
  40      0.000001217868
  41      0.000005176743
  42      0.000023664337
  43     -0.002347902043
  44      0.019028744788
  45     -0.000345056061
  46      0.000868148974
  47      0.001049819411
  48     -0.005920347838
  49     -0.008033456966
  50     -0.009689919350
  51      0.000264392582
  52      0.000286392033
  53      0.001003179988
  54     -0.000347352182
  55     -0.000202136344
  56     -0.000027738516
  57      0.002403343589
  58     -0.019158730161
  59     -0.000533118073
  60     -0.000638668477
  61     -0.000901720541
  62     -0.003670293915
  63      0.009131449873
  64      0.009053422502
  65     -0.000106796560
  66      0.000596716435
  67      0.001124834909
  68      0.000718071257
  69      0.000122292322
  70      0.001260882161
  71      0.002909787506
  72      0.001562759418
  73     -0.001566555292
  74     -0.000766000291
  75     -0.004072176398
  76     -0.005277657609
  77     -0.002185200371
  78     -0.000809186839
  79     -0.000900749620
  80      0.003976213604
  81      0.005012828783
  82     -0.001952775460
  83      0.000502507540
  84      0.001182557629
  85     -0.001131810976
  86     -0.002593505358
  87      0.001970265236
  88      0.001733145794
  89      0.000129720162
 Ene=   0.12854677714906E+01
 Spin= Alpha
 Occup=    0.000000
   1     -0.000003205002
   2     -0.000001578372
   3      0.000035087388
   4      0.000071132315
   5     -0.000056665033
   6     -0.000163351570
   7      0.000187672141
   8     -0.000350529692
   9      0.000075745495
  10      0.000158000416
  11     -0.000166687657
  12     -0.000267403027
  13     -0.000117977184
  14      0.000118903431
  15      0.000183629078
  16     -0.000662240077
  17      0.000700940897
  18      0.001161622293
  19      0.000862832756
  20     -0.000924463399
  21     -0.001584858323
  22      0.062683788448
  23      0.288610574038
  24      0.451720338652
  25     -0.047216295533
  26     -0.060491574532
  27     -0.098474864495
  28     -0.452940496664
  29     -0.710146300376
  30      0.074246463151
  31      0.095373713720
  32      0.001235963664
  33     -0.000317328027
  34      0.000319978252
  35      0.000117165609
  36      0.000671549081
  37      0.000379046881
  38      0.003023761786
  39      0.001287725730
  40     -0.000570689817
  41     -0.000185631271
  42     -0.000067302131
  43      0.001921768670
  44     -0.012650211859
  45     -0.006150207339
  46     -0.052818164922
  47     -0.080603887429
  48      0.068282010996
  49      0.530683715194
  50      0.810907103007
  51     -0.009909588078
  52     -0.046236545287
  53     -0.067945649230
  54     -0.027164867404
  55     -0.006043230565
  56      0.000049872378
  57     -0.001834737294
  58      0.011976084115
  59      0.006751615509
  60      0.052273579358
  61      0.079862668540
  62     -0.063269774649
  63     -0.530264890477
  64     -0.808528148301
  65     -0.008523391073
  66     -0.037215111694
  67     -0.063015414658
  68      0.039779764117
  69      0.023059200510
  70     -0.198174295012
  71     -0.294946818585
  72     -0.142604755822
  73      0.012346164177
  74      0.159686687017
  75      0.200237892560
  76      0.297796554692
  77      0.160982041797
  78      0.131213826884
  79      0.057080279142
  80     -0.199652739293
  81     -0.295933778457
  82      0.118282341882
  83     -0.168242411288
  84     -0.054604080852
  85      0.197776780056
  86      0.293910001238
  87     -0.135432341687
  88      0.025776536216
  89     -0.160820655329
 Ene=   0.13031077149403E+01
 Spin= Alpha
 Occup=    0.000000
   1     -0.000017817159
   2     -0.000008318980
   3      0.000090546001
   4      0.000111146156
   5     -0.000050488503
   6     -0.000321808854
   7      0.000015523963
   8      0.002574728052
   9     -0.000249272820
  10      0.000083402539
  11      0.000778423361
  12      0.000978292702
  13     -0.000046519843
  14     -0.000529241277
  15     -0.000709554870
  16     -0.000368147075
  17     -0.003365499857
  18     -0.004108268992
  19      0.000463412627
  20      0.004491997244
  21      0.005495697507
  22     -0.005217765537
  23     -0.000319497234
  24     -0.000788542580
  25     -0.010561032564
  26     -0.001263287330
  27      0.006615484033
  28      0.000973605294
  29      0.001343649184
  30      0.017373014933
  31      0.002969319390
  32      0.000275873006
  33      0.002138777057
  34      0.000434940817
  35     -0.000000528996
  36     -0.000002087984
  37      0.000002969098
  38     -0.000012139231
  39     -0.000001880153
  40     -0.000060108488
  41      0.000004047391
  42     -0.000191502353
  43      0.002147587100
  44     -0.004183361310
  45      0.000051997424
  46      0.000721180963
  47      0.001210780134
  48     -0.000718793046
  49     -0.002157013123
  50     -0.004738848379
  51     -0.000694708813
  52      0.000303856666
  53      0.000005814418
  54      0.003618564298
  55      0.001058595680
  56     -0.000195548288
  57      0.002321756420
  58     -0.005364257080
  59      0.000081906219
  60      0.000658042517
  61      0.001116175988
  62      0.000026406487
  63     -0.001701238218
  64     -0.003925083175
  65     -0.000526236846
  66      0.001072454787
  67      0.000460718192
  68      0.003495790230
  69      0.000969960050
  70      0.001521880927
  71      0.003279938965
  72      0.001589617979
  73      0.005522528889
  74     -0.005975378443
  75     -0.000592090940
  76     -0.001125002065
  77     -0.002846834610
  78     -0.007123913595
  79      0.001615516850
  80     -0.000307036458
  81     -0.000705431348
  82      0.000455263709
  83     -0.007410911292
  84      0.001727741493
  85      0.001429032675
  86      0.003086825050
  87      0.000395279183
  88      0.005794247814
  89     -0.005862475307
 Ene=   0.13230516223804E+01
 Spin= Alpha
 Occup=    0.000000
   1      0.000043444722
   2      0.000022330939
   3     -0.000415347008
   4     -0.000727606279
   5      0.000572674860
   6      0.001700419706
   7     -0.001882734420
   8      0.006924138494
   9     -0.001921070640
  10     -0.002403659205
  11     -0.017833090764
  12     -0.027178652213
  13      0.001697133254
  14      0.011814189165
  15      0.019965818838
  16      0.010367183290
  17      0.077293496877
  18      0.116131972035
  19     -0.014157025231
  20     -0.103158874389
  21     -0.159841452827
  22      0.006291204295
  23      0.036442209042
  24      0.018285087400
  25      0.266653676186
  26      0.109524368524
  27     -0.010304644196
  28     -0.057040728525
  29     -0.028827667183
  30     -0.417357647973
  31     -0.174615583354