[Molden Format]
[Title]
generated by TRESC, imaginary part1 of MOs of job Ni0-C2H4
 
[Atoms] AU
Ni   1  28    1.8539796126    6.7825327278   -0.4903308426
 C   2   6    4.6704257640    4.7931727241    1.2726747479
 C   3   6    5.0465532453    4.7581863879   -1.3126919263
 H   4   1    5.6975577332    6.1191094603    2.4870942128
 H   5   1    3.7846974132    3.1964352679    2.2493349313
 H   6   1    4.4712691419    3.1312517299   -2.4574086438
 H   7   1    6.3839198639    6.0535352724   -2.2192553710
[GTO]
  1 0
 s  6 1.0
    71074.8032110000        0.0049184150
    10672.0209410000        0.0200173975
     2428.1389007000        0.0784715325
      685.5359514800        0.2482002663
      223.1007286300        0.4665280195
       76.8420140400        0.3374151926
 s  1 1.0
      148.7112201600        1.0000000000
 s  1 1.0
       17.4591549900        1.0000000000
 s  1 1.0
        7.1625280700        1.0000000000
 s  1 1.0
       12.5561371300        1.0000000000
 s  1 1.0
        2.0735740500        1.0000000000
 s  1 1.0
        0.8538264100        1.0000000000
 s  1 1.0
        0.1053676600        1.0000000000
 s  1 1.0
        0.0381340900        1.0000000000
 p  5 1.0
      916.7360866200        0.0107030171
      216.0613991300        0.0711467350
       68.3839148200        0.2646675976
       24.5938439500        0.5093159720
        9.1392960200        0.3283291628
 p  1 1.0
        4.7193371700        1.0000000000
 p  1 1.0
        1.8161849200        1.0000000000
 p  1 1.0
        0.6784075100        1.0000000000
 d  4 1.0
       47.0938321100        0.0346401353
       13.1464639700        0.1833736831
        4.4170548900        0.4455621030
        1.4771565100        0.5627236040
 d  1 1.0
        0.4373592200        1.0000000000
 p  1 1.0
        0.1465880000        1.0000000000
 f  1 1.0
        2.1740000000        1.0000000000
 
  2 0
 s  5 1.0
     1238.4016938000        0.0059599745
      186.2900499200        0.0422621111
       42.2511763500        0.1866575214
       11.6765579300        0.4675815865
        3.5930506500        0.4422897287
 s  1 1.0
        0.4024514700        1.0000000000
 s  1 1.0
        0.1309018300        1.0000000000
 p  3 1.0
        9.4680970600        0.0570294585
        2.0103545100        0.3130471495
        0.5477100500        0.7605135301
 p  1 1.0
        0.1526861400        1.0000000000
 d  1 1.0
        0.8000000000        1.0000000000
 
  3 0
 s  5 1.0
     1238.4016938000        0.0059599745
      186.2900499200        0.0422621111
       42.2511763500        0.1866575214
       11.6765579300        0.4675815865
        3.5930506500        0.4422897287
 s  1 1.0
        0.4024514700        1.0000000000
 s  1 1.0
        0.1309018300        1.0000000000
 p  3 1.0
        9.4680970600        0.0570294585
        2.0103545100        0.3130471495
        0.5477100500        0.7605135301
 p  1 1.0
        0.1526861400        1.0000000000
 d  1 1.0
        0.8000000000        1.0000000000
 
  4 0
 s  3 1.0
       13.0107010000        0.0391282527
        1.9622572000        0.2855840539
        0.4445379600        0.7689908602
 s  1 1.0
        0.1219496200        1.0000000000
 p  1 1.0
        0.8000000000        1.0000000000
 
  5 0
 s  3 1.0
       13.0107010000        0.0391282527
        1.9622572000        0.2855840539
        0.4445379600        0.7689908602
 s  1 1.0
        0.1219496200        1.0000000000
 p  1 1.0
        0.8000000000        1.0000000000
 
  6 0
 s  3 1.0
       13.0107010000        0.0391282527
        1.9622572000        0.2855840539
        0.4445379600        0.7689908602
 s  1 1.0
        0.1219496200        1.0000000000
 p  1 1.0
        0.8000000000        1.0000000000
 
  7 0
 s  3 1.0
       13.0107010000        0.0391282527
        1.9622572000        0.2855840539
        0.4445379600        0.7689908602
 s  1 1.0
        0.1219496200        1.0000000000
 p  1 1.0
        0.8000000000        1.0000000000
 
[5D]
[7F]
[9G]
[MO]
 Ene=  -0.30456806190138E+03
 Spin= Alpha
 Occup=    0.999999
   1      0.531437692331
   2      0.027109961948
   3      0.018964224316
   4     -0.002049086298
   5     -0.006365259404
   6      0.001001470169
   7     -0.000452245306
   8      0.000149482779
   9     -0.000052384964
  10      0.000000529362
  11      0.000000282643
  12     -0.000000266513
  13     -0.000000444021
  14     -0.000001840582
  15      0.000000789089
  16      0.000000689212
  17      0.000005050410
  18     -0.000002178387
  19     -0.000001212900
  20     -0.000009120298
  21      0.000004937611
  22      0.000000469834
  23     -0.000000588570
  24      0.000000752309
  25     -0.000001368926
  26      0.000003222812
  27     -0.000003483251
  28      0.000001856489
  29     -0.000001774488
  30      0.000004776112
  31     -0.000011243619
  32      0.000005748687
  33      0.000036947579
  34     -0.000024403886
  35     -0.000000005133
  36      0.000000028520
  37     -0.000000021576
  38      0.000000035687
  39     -0.000000035154
  40     -0.000000041749
  41     -0.000000224497
  42      0.000000242745
  43      0.000007029130
  44     -0.000048175698
  45      0.000001909598
  46      0.000002061066
  47     -0.000001575864
  48     -0.000000390734
  49      0.000017335906
  50     -0.000011615599
  51      0.000001409288
  52     -0.000001443585
  53      0.000000929987
  54     -0.000000809785
  55      0.000002128155
  56      0.000000163890
  57      0.000007191013
  58     -0.000048505807
  59     -0.000001192806
  60      0.000001970130
  61     -0.000001609358
  62      0.000006118028
  63      0.000016725316
  64     -0.000010741361
  65      0.000001975556
  66      0.000000186309
  67     -0.000000202585
  68     -0.000000961550
  69      0.000002283777
  70      0.000002818380
  71      0.000010942374
  72      0.000000831755
  73     -0.000000244616
  74     -0.000000055754
  75      0.000002711231
  76      0.000010804416
  77      0.000001223564
  78     -0.000000137808
  79      0.000000136795
  80      0.000002737056
  81      0.000011861823
  82     -0.000000807745
  83      0.000000441211
  84     -0.000000103322
  85      0.000002792135
  86      0.000010751658
  87     -0.000000843826
  88      0.000000227161
  89     -0.000000021471
 Ene=  -0.30456702963125E+03
 Spin= Alpha
 Occup=    0.000001
   1     -0.000475821097
   2     -0.000024272646
   3     -0.000016982733
   4      0.000001833339
   5      0.000005702045
   6     -0.000000896309
   7      0.000000404837
   8     -0.000000133173
   9      0.000000046538
  10     -0.000000000190
  11     -0.000000000426
  12      0.000000026963
  13     -0.000000002398
  14      0.000000001868
  15     -0.000000022643
  16     -0.000000000673
  17     -0.000000004734
  18      0.000000017086
  19      0.000000000722
  20      0.000000008327
  21     -0.000000010729
  22      0.000000000314
  23      0.000000003135
  24      0.000000009574
  25      0.000000001320
  26     -0.000000002908
  27      0.000000002954
  28     -0.000000002063
  29     -0.000000002775
  30     -0.000000004369
  31      0.000000010098
  32     -0.000000003059
  33     -0.000000033124
  34      0.000000023017
  35     -0.000000004056
  36      0.000000000658
  37     -0.000000002020
  38     -0.000000003209
  39     -0.000000007931
  40      0.000000000596
  41      0.000000001001
  42     -0.000000000255
  43     -0.000000005121
  44      0.000000034210
  45     -0.000000001375
  46     -0.000000001803
  47      0.000000001442
  48      0.000000003342
  49     -0.000000013086
  50      0.000000010916
  51     -0.000000001075
  52      0.000000001661
  53     -0.000000000699
  54      0.000000000763
  55     -0.000000001489
  56     -0.000000000153
  57     -0.000000007186
  58      0.000000051428
  59      0.000000001407
  60     -0.000000001810
  61      0.000000001490
  62     -0.000000003450
  63     -0.000000017789
  64      0.000000009010
  65     -0.000000001711
  66      0.000000000265
  67      0.000000000016
  68      0.000000000885
  69     -0.000000002143
  70     -0.000000002861
  71     -0.000000009818
  72     -0.000000000630
  73      0.000000000267
  74      0.000000000313
  75     -0.000000001694
  76     -0.000000008090
  77     -0.000000001458
  78     -0.000000000144
  79     -0.000000000007
  80     -0.000000003135
  81     -0.000000011514
  82      0.000000000589
  83     -0.000000000194
  84      0.000000000146
  85     -0.000000002279
  86     -0.000000009515
  87      0.000000000836
  88     -0.000000000179
  89     -0.000000000128
 Ene=  -0.36777937988458E+02
 Spin= Alpha
 Occup=    1.000000
   1      0.322595925937
   2      0.123685765200
   3     -0.712528903953
   4     -0.450254325532
   5      0.053119958643
   6     -0.016537074260
   7      0.002059148204
   8     -0.000557272033
   9      0.000170774163
  10     -0.000033756271
  11     -0.000285579263
  12      0.000183106694
  13     -0.000013185229
  14     -0.000078588355
  15      0.000051478573
  16      0.000001962346
  17      0.000013332146
  18     -0.000005006215
  19      0.000003350477
  20      0.000017015733
  21     -0.000015410081
  22      0.000194056444
  23     -0.000024585270
  24     -0.000035471847
  25      0.000135048005
  26     -0.000306918124
  27     -0.000044645002
  28     -0.000000002895
  29      0.000017731983
  30     -0.000060444237
  31      0.000139994739
  32     -0.000026167420
  33     -0.000165576748
  34      0.000111512493
  35     -0.000000180206
  36     -0.000000322579
  37      0.000000324618
  38      0.000000317523
  39      0.000000897441
  40      0.000000956170
  41      0.000005224925
  42     -0.000000957141
  43     -0.000034847451
  44      0.000223830145
  45     -0.000009438835
  46     -0.000010882675
  47      0.000007612314
  48      0.000000455417
  49     -0.000079815779
  50      0.000051684581
  51     -0.000007194719
  52      0.000008255020
  53     -0.000005532991
  54      0.000004870047
  55     -0.000013066383
  56     -0.000001374065
  57     -0.000033215096
  58      0.000214920874
  59      0.000005673331
  60     -0.000015257953
  61      0.000007982000
  62     -0.000026551582
  63     -0.000074487801
  64      0.000053481478
  65     -0.000009631684
  66     -0.000001798157
  67      0.000001222704
  68      0.000006568631
  69     -0.000014291592
  70     -0.000012461633
  71     -0.000047317525
  72     -0.000002585194
  73      0.000002546615
  74     -0.000000889933
  75     -0.000012652458
  76     -0.000047614923
  77     -0.000001285616
  78      0.000001954715
  79     -0.000001775073
  80     -0.000012531790
  81     -0.000043248441
  82      0.000003489025
  83      0.000002064624
  84     -0.000002445091
  85     -0.000012278906
  86     -0.000047467094
  87      0.000003491433
  88      0.000002392349
  89     -0.000000373897
 Ene=  -0.36749889597782E+02
 Spin= Alpha
 Occup=    0.000000
   1     -0.000002763002
   2     -0.000001059566
   3      0.000006116126
   4      0.000003862854
   5     -0.000000473302
   6      0.000000144583
   7     -0.000000018453
   8      0.000000003743
   9      0.000000000769
  10      0.000015620403
  11      0.000000010144
  12      0.000002588664
  13     -0.000002239012
  14      0.000000003454
  15     -0.000000368152
  16      0.000001509264
  17     -0.000000001749
  18      0.000000245286
  19     -0.000000622015
  20      0.000000000577
  21     -0.000000099929
  22      0.000000041001
  23      0.000000159217
  24      0.000000365989
  25      0.000000000690
  26     -0.000000025896
  27     -0.000000012716
  28     -0.000000046282
  29     -0.000000098185
  30     -0.000000001230
  31      0.000000009915
  32      0.000000147970
  33      0.000000000339
  34      0.000000021252
  35      0.000000023921
  36     -0.000000004539
  37      0.000000011397
  38      0.000000015852
  39      0.000000044015
  40     -0.000000003084
  41     -0.000000004348
  42      0.000000000729
  43     -0.000000004582
  44      0.000000089227
  45     -0.000000002722
  46     -0.000000002884
  47     -0.000000002880
  48     -0.000000043501
  49      0.000000058394
  50      0.000000050058
  51      0.000000002647
  52      0.000000001807
  53     -0.000000001287
  54     -0.000000003068
  55     -0.000000001931
  56     -0.000000000174
  57      0.000000003565
  58     -0.000000090159
  59     -0.000000002057
  60      0.000000004020
  61      0.000000002427
  62     -0.000000056626
  63     -0.000000038255
  64     -0.000000046122
  65     -0.000000001252
  66      0.000000002656
  67     -0.000000001450
  68      0.000000000479
  69      0.000000001323
  70     -0.000000011135
  71     -0.000000044933
  72      0.000000007962
  73      0.000000002611
  74     -0.000000002911
  75      0.000000015186
  76      0.000000012548
  77      0.000000002416
  78      0.000000000069
  79     -0.000000000229
  80     -0.000000013984
  81     -0.000000003627
  82      0.000000003741
  83     -0.000000001827
  84      0.000000001797
  85      0.000000010717
  86      0.000000031976
  87      0.000000005076
  88     -0.000000001932
  89      0.000000002399
 Ene=  -0.32201063720680E+02
 Spin= Alpha
 Occup=    0.689739
   1      0.000079041776
   2      0.000032852511
   3     -0.000324019620
   4     -0.000226600255
   5      0.000238322154
   6      0.000176685189
   7     -0.000186959326
   8      0.000149249989
   9      0.000429387402
  10     -0.003363254800
  11      0.260632072390
  12     -0.522842185427
  13      0.000026764166
  14     -0.004680859883
  15      0.008610354544
  16     -0.000064193517
  17      0.007528388720
  18     -0.014594085936
  19     -0.000001181286
  20     -0.002849973842
  21      0.005278210557
  22      0.000000624103
  23     -0.000003120790
  24      0.000001564432
  25     -0.000007134224
  26      0.000005036852
  27     -0.000026290115
  28      0.000009446717
  29     -0.000012563759
  30      0.000023504075
  31     -0.000093459113
  32      0.000055099836
  33      0.001019131722
  34     -0.001441727586
  35      0.000001979215
  36      0.000007661742
  37      0.000025256212
  38      0.000003838439
  39     -0.000005833449
  40      0.000032677130
  41      0.000000310505
  42      0.000006308709
  43     -0.000152285367
  44     -0.000145384502
  45      0.000029758036
  46      0.000024595354
  47     -0.000027863782
  48      0.000034529634
  49      0.000103308989
  50     -0.000070604669
  51      0.000000750843
  52      0.000023373601
  53     -0.000034179363
  54      0.000013558574
  55     -0.000059979983
  56      0.000005525552
  57     -0.000162109386
  58      0.000006479729
  59     -0.000020064852
  60      0.000029400744
  61     -0.000026937357
  62      0.000085871213
  63      0.000112351872
  64     -0.000082871606
  65     -0.000011453416
  66     -0.000022203009
  67      0.000020832790
  68      0.000020915208
  69     -0.000071428865
  70      0.000042891818
  71     -0.000120584229
  72      0.000016295758
  73      0.000004661796
  74     -0.000028136856
  75      0.000054808504
  76     -0.000275580108
  77      0.000048078481
  78      0.000043027333
  79     -0.000037365367
  80      0.000056779840
  81     -0.000300538976
  82     -0.000039561164
  83      0.000060064875
  84     -0.000041011787
  85      0.000045508828
  86     -0.000143256789
  87     -0.000020299495
  88      0.000013521186
  89     -0.000031412099
 Ene=  -0.32189245689239E+02
 Spin= Alpha
 Occup=    0.338239
   1      0.000000889301
   2      0.000000770302
   3     -0.000009125650
   4     -0.000005587521
   5      0.000009428151
   6      0.000005075983
   7     -0.000005039344
   8      0.000004308619
   9      0.000010964143
  10      0.253377048322
  11     -0.017036164844
  12      0.009636978591
  13     -0.004202181590
  14      0.000292734594
  15     -0.000143399796
  16      0.007047770674
  17     -0.000476291449
  18      0.000258610010
  19     -0.002515393761
  20      0.000167276427
  21     -0.000088267257
  22      0.000002270339
  23      0.000007868317
  24     -0.000005318606
  25     -0.000000946579
  26      0.000001184740
  27      0.000002851036
  28      0.000014087302
  29     -0.000009631183
  30     -0.000000176725
  31     -0.000000389208
  32      0.000593100674
  33     -0.000031316810
  34      0.000013587867
  35     -0.000002364173
  36     -0.000000762458
  37     -0.000000173481
  38     -0.000002034134
  39      0.000004496838
  40     -0.000001391231
  41     -0.000000385472
  42     -0.000001558114
  43     -0.000023665674
  44      0.000350748428
  45     -0.000002024705
  46     -0.000003387282
  47      0.000002890467
  48     -0.000195243532
  49      0.000082978381
  50     -0.000037790970
  51      0.000009465805
  52      0.000018680166
  53     -0.000013025642
  54      0.000000146263
  55     -0.000003096478
  56      0.000001925226
  57      0.000015607879
  58     -0.000355148214
  59     -0.000001902169
  60      0.000006305242
  61     -0.000003419246
  62     -0.000209578925
  63     -0.000017539493
  64      0.000028470106
  65      0.000000526938
  66      0.000018121020
  67     -0.000012088684
  68     -0.000002973283
  69      0.000004679704
  70      0.000007959208
  71     -0.000068663269
  72      0.000022032044
  73      0.000007952293
  74     -0.000006372885
  75      0.000007524395
  76     -0.000059723265
  77      0.000020249326
  78      0.000006427739
  79     -0.000004887762
  80     -0.000005342111
  81      0.000057727736
  82      0.000017339727
  83     -0.000011019284
  84      0.000006951928
  85     -0.000004734200
  86      0.000049421276
  87      0.000016216342
  88     -0.000009319629
  89      0.000005205426
 Ene=  -0.31547128700078E+02
 Spin= Alpha
 Occup=    0.892007
   1     -0.000047848353
   2     -0.000019354943
   3      0.000168262661
   4      0.000081268259
   5     -0.000080827174
   6     -0.000055889738
   7      0.000054671100
   8     -0.000033854434
   9     -0.000133657504
  10     -0.055595701071
  11     -0.601792195553
  12     -0.315235542838
  13     -0.000341065345
  14     -0.003600994502
  15     -0.002322863023
  16     -0.000897345654
  17     -0.009727517656
  18     -0.004862926266
  19      0.000270841336
  20      0.002920872344
  21      0.001364271006
  22      0.000002898898
  23     -0.000002031033
  24     -0.000001167696
  25     -0.000017752300
  26     -0.000000192443
  27      0.000005083141
  28     -0.000004095070
  29      0.000002295322
  30     -0.000018200658
  31      0.000017372196
  32     -0.000075048225
  33     -0.000742951680
  34     -0.000222211680
  35      0.000010317309
  36      0.000034206304
  37      0.000043680588
  38      0.000003630249
  39     -0.000009754795
  40      0.000070885360
  41     -0.000014219198
  42     -0.000001605213
  43      0.000048419457
  44      0.000035873986
  45     -0.000008920036
  46     -0.000011361342
  47     -0.000000185016
  48     -0.000008885067
  49     -0.000031870963
  50      0.000016075445
  51     -0.000001257017
  52     -0.000016995833
  53      0.000000037592
  54     -0.000014144954
  55      0.000017774579
  56     -0.000001377475
  57      0.000051395321
  58     -0.000008232938
  59      0.000005135099
  60     -0.000012535350
  61     -0.000000548734
  62     -0.000025638735
  63     -0.000033921225
  64      0.000017727145
  65      0.000006307662
  66      0.000012676796
  67      0.000003404501
  68     -0.000018923193
  69      0.000018786570
  70     -0.000018952791
  71      0.000136391177
  72     -0.000025733221
  73     -0.000028480709
  74      0.000010535315
  75     -0.000010767957
  76     -0.000011851968
  77      0.000003689849
  78     -0.000003029644
  79     -0.000015043934
  80     -0.000011453652
  81     -0.000005875590
  82     -0.000002176823
  83     -0.000003259370
  84     -0.000014601758
  85     -0.000019283534
  86      0.000143492839
  87      0.000018137094
  88     -0.000036030895
  89      0.000012074897
 Ene=  -0.31536736992405E+02
 Spin= Alpha
 Occup=    0.658411
   1     -0.000010501562
   2     -0.000005324272
   3      0.000050551472
   4      0.000022199159
   5     -0.000032424163
   6     -0.000016771827
   7      0.000015604916
   8     -0.000010172377
   9     -0.000036238869
  10     -0.720847313687
  11      0.031776995759
  12      0.046188922911
  13     -0.004035751489
  14      0.000189128437
  15      0.000268069539
  16     -0.011726526263
  17      0.000502664640
  18      0.000752892054
  19      0.003490157382
  20     -0.000136857522
  21     -0.000231521088
  22     -0.000008214361
  23     -0.000032323311
  24      0.000022063993
  25      0.000003889716
  26     -0.000001871364
  27     -0.000000883196
  28     -0.000009632863
  29      0.000006875527
  30     -0.000001157834
  31      0.000005043668
  32     -0.000787959116
  33      0.000003305215
  34      0.000069986200
  35      0.000007045331
  36     -0.000000001906
  37     -0.000004090376
  38      0.000005115111
  39     -0.000012737010
  40     -0.000001850472
  41      0.000001649309
  42      0.000002107791
  43      0.000043301436
  44     -0.000496477920
  45      0.000002159155
  46      0.000005900556
  47     -0.000003926228
  48      0.000269803916
  49     -0.000108530894
  50      0.000048376616
  51     -0.000010452999
  52     -0.000027927289
  53      0.000020706723
  54     -0.000001708240
  55      0.000010079537
  56     -0.000002980110
  57     -0.000016297293
  58      0.000505852598
  59      0.000003512785
  60     -0.000011447528
  61      0.000007301286
  62      0.000283462670
  63      0.000009666895
  64     -0.000028848416
  65     -0.000002287876
  66     -0.000023301851
  67      0.000014985314
  68      0.000004077125
  69     -0.000004360726
  70     -0.000011133665
  71      0.000097291398
  72     -0.000029924742
  73     -0.000010735295
  74      0.000011007773
  75     -0.000011465714
  76      0.000098243695
  77     -0.000030338257
  78     -0.000012247644
  79      0.000009213727
  80      0.000002916870
  81     -0.000061472081
  82     -0.000020839540
  83      0.000012405137
  84     -0.000006713136
  85      0.000002844591
  86     -0.000063617737
  87     -0.000021050448
  88      0.000013278016
  89     -0.000006358549
 Ene=  -0.31531286015332E+02
 Spin= Alpha
 Occup=    0.416787
   1     -0.000031197521
   2     -0.000012785020
   3      0.000111233522
   4      0.000052775006
   5     -0.000053849635
   6     -0.000036235527
   7      0.000035283151
   8     -0.000021691759
   9     -0.000086033904
  10      0.014208793077
  11     -0.138176378006
  12      0.193396753613
  13      0.000090441823
  14     -0.000742976277
  15      0.001193843932
  16      0.000222755121
  17     -0.002278558156
  18      0.003110485099
  19     -0.000060792069
  20      0.000713194088
  21     -0.000929644862
  22      0.000002454900
  23      0.000001175639
  24     -0.000000292426
  25      0.000000259075
  26      0.000005576050
  27      0.000003380199
  28     -0.000001418015
  29      0.000001846965
  30     -0.000004537547
  31      0.000014073992
  32      0.000003365602
  33     -0.000224866843
  34      0.000248148854
  35     -0.000000623096
  36     -0.000001569263
  37     -0.000008547070
  38     -0.000001749652
  39      0.000002103039
  40     -0.000010356338
  41     -0.000001149656
  42     -0.000001117838
  43      0.000030434611
  44      0.000036208862
  45     -0.000005481064
  46     -0.000004579279
  47      0.000004594347
  48     -0.000012380169
  49     -0.000016046512
  50      0.000012167296
  51      0.000000462422
  52     -0.000005442323
  53      0.000006429426
  54     -0.000004019412
  55      0.000013004174
  56     -0.000000834992
  57      0.000033926213
  58     -0.000018303236
  59      0.000003613231
  60     -0.000004911865
  61      0.000004065371
  62     -0.000023714976
  63     -0.000019846002
  64      0.000015871928
  65      0.000003388067
  66      0.000005520893
  67     -0.000004185896
  68     -0.000005950178
  69      0.000015766574
  70     -0.000008816813
  71      0.000027551000
  72     -0.000003576379
  73     -0.000002136573
  74      0.000005685025
  75     -0.000009995953
  76      0.000048285939
  77     -0.000007980898
  78     -0.000008042118
  79      0.000005695118
  80     -0.000010618266
  81      0.000056773726
  82      0.000007594405
  83     -0.000011783919
  84      0.000006734348
  85     -0.000009536421
  86      0.000035752984
  87      0.000005046459
  88     -0.000004683430
  89      0.000006807008
 Ene=  -0.31516800995063E+02
 Spin= Alpha
 Occup=    0.004817
   1     -0.000000730942
   2     -0.000000339424
   3      0.000003111723
   4      0.000001381187
   5     -0.000001794807
   6     -0.000001005592
   7      0.000000943646
   8     -0.000000591196
   9     -0.000002234299
  10     -0.028259181212
  11     -0.000378134878
  12      0.003481966231
  13     -0.000177331616
  14     -0.000001859604
  15      0.000022500695
  16     -0.000449839673
  17     -0.000006771730
  18      0.000055536376
  19      0.000132500062
  20      0.000002794046
  21     -0.000016730406
  22     -0.000000303060
  23     -0.000001303150
  24      0.000000870242
  25      0.000000145994
  26     -0.000000014714
  27      0.000000003417
  28     -0.000000353363
  29      0.000000265246
  30     -0.000000093676
  31      0.000000326749
  32     -0.000029931246
  33     -0.000002301693
  34      0.000004830909
  35      0.000000318080
  36     -0.000000070597
  37     -0.000000265981
  38     -0.000000197951
  39     -0.000000483571
  40     -0.000000152542
  41     -0.000000026355
  42      0.000000082548
  43      0.000001974920
  44     -0.000018590404
  45      0.000000026087
  46      0.000000179005
  47     -0.000000111306
  48      0.000010155210
  49     -0.000004258259
  50      0.000001966585
  51     -0.000000384489
  52     -0.000001128675
  53      0.000000849436
  54     -0.000000132542
  55      0.000000517882
  56     -0.000000134273
  57     -0.000000301511
  58      0.000019110088
  59      0.000000166998
  60     -0.000000488010
  61      0.000000318515
  62      0.000010551343
  63      0.000000142578
  64     -0.000000953826
  65     -0.000000061705
  66     -0.000000824719
  67      0.000000532121
  68      0.000000112372
  69     -0.000000014970
  70     -0.000000513842
  71      0.000004012629
  72     -0.000001179195
  73     -0.000000446691
  74      0.000000478151
  75     -0.000000526461
  76      0.000004184885
  77     -0.000001228211
  78     -0.000000545687
  79      0.000000389993
  80      0.000000002584
  81     -0.000001828656
  82     -0.000000725090
  83      0.000000366063
  84     -0.000000195305
  85      0.000000012329
  86     -0.000002015716
  87     -0.000000739132
  88      0.000000449240
  89     -0.000000174112
 Ene=  -0.10272204075533E+02
 Spin= Alpha
 Occup=    1.000000
   1      0.000001239404
   2      0.000000842171
   3     -0.000055750615
   4     -0.000128592968
   5      0.000122732918
   6      0.000223059759
   7     -0.000127422353
   8     -0.010752407850
   9      0.001558551402
  10     -0.000001697114
  11     -0.000013740047
  12      0.000009152007
  13      0.000006564361
  14      0.000062505881
  15     -0.000041792955
  16     -0.000000100176
  17     -0.000052945790
  18      0.000035192529
  19     -0.000062059460
  20     -0.000352997915
  21      0.000235509202
  22      0.000095533221
  23     -0.000038323485
  24      0.000028809146
  25     -0.000080870959
  26      0.000193614775
  27     -0.000128870109
  28      0.000056524667
  29     -0.000036118347
  30      0.000079865171
  31     -0.000193839057
  32     -0.000660218361
  33     -0.004904213673
  34      0.003268829454
  35     -0.000005588830
  36     -0.000016660828
  37      0.000010637752
  38      0.000002369729
  39     -0.000010657526
  40     -0.000009316336
  41     -0.000049301075
  42     -0.639822929899
  43     -0.033926314174
  44      0.024005276983
  45     -0.002127397171
  46      0.000692665916
  47     -0.000280411177
  48     -0.000425941334
  49     -0.003153894699
  50      0.002108119554
  51      0.000487809151
  52     -0.000254211934
  53     -0.000023803522
  54      0.000607791719
  55     -0.001358127366
  56     -0.680524209754
  57     -0.036343989888
  58      0.026884282778
  59      0.002144080981
  60      0.000060870091
  61     -0.000215024063
  62     -0.000085403067
  63     -0.003292104012
  64      0.002159744389
  65      0.000481418979
  66      0.000243936651
  67     -0.000353082118
  68      0.000586577327
  69     -0.001411734851
  70      0.002343499733
  71     -0.005959596210
  72     -0.000681084851
  73     -0.000894563432
  74     -0.001659112395
  75      0.002347025187
  76     -0.005953388917
  77     -0.000421335421
  78      0.001203859425
  79      0.001546585071
  80      0.002512942200
  81     -0.006345656773
  82      0.000787340317
  83      0.001093978126
  84      0.001692583250
  85      0.002513416271
  86     -0.006342237154
  87      0.000506624693
  88     -0.001162200700
  89     -0.001753712138
 Ene=  -0.10272172534901E+02
 Spin= Alpha
 Occup=    0.000001
   1     -0.000000000730
   2     -0.000000000292
   3      0.000000012009
   4      0.000000025300
   5     -0.000000023716
   6     -0.000000045696
   7      0.000000023685
   8      0.000002207959
   9     -0.000000318642
  10      0.000000019959
  11      0.000000008011
  12      0.000000001472
  13      0.000000088052
  14     -0.000000009357
  15      0.000000077366
  16      0.000000089866
  17     -0.000000008836
  18     -0.000000014406
  19     -0.000000058751
  20      0.000000086972
  21     -0.000000036777
  22     -0.000000029220
  23     -0.000000016594
  24      0.000000001484
  25      0.000000004431
  26     -0.000000042259
  27      0.000000071816
  28      0.000000153713
  29     -0.000000105789
  30     -0.000000035128
  31      0.000000054996