[Molden Format]
[Title]
generated by TRESC, real part1 of MOs of job Ni0-C2H4
 
[Atoms] AU
Ni   1  28    1.8539796126    6.7825327278   -0.4903308426
 C   2   6    4.6704257640    4.7931727241    1.2726747479
 C   3   6    5.0465532453    4.7581863879   -1.3126919263
 H   4   1    5.6975577332    6.1191094603    2.4870942128
 H   5   1    3.7846974132    3.1964352679    2.2493349313
 H   6   1    4.4712691419    3.1312517299   -2.4574086438
 H   7   1    6.3839198639    6.0535352724   -2.2192553710
[GTO]
  1 0
 s  6 1.0
    71074.8032110000        0.0049184150
    10672.0209410000        0.0200173975
     2428.1389007000        0.0784715325
      685.5359514800        0.2482002663
      223.1007286300        0.4665280195
       76.8420140400        0.3374151926
 s  1 1.0
      148.7112201600        1.0000000000
 s  1 1.0
       17.4591549900        1.0000000000
 s  1 1.0
        7.1625280700        1.0000000000
 s  1 1.0
       12.5561371300        1.0000000000
 s  1 1.0
        2.0735740500        1.0000000000
 s  1 1.0
        0.8538264100        1.0000000000
 s  1 1.0
        0.1053676600        1.0000000000
 s  1 1.0
        0.0381340900        1.0000000000
 p  5 1.0
      916.7360866200        0.0107030171
      216.0613991300        0.0711467350
       68.3839148200        0.2646675976
       24.5938439500        0.5093159720
        9.1392960200        0.3283291628
 p  1 1.0
        4.7193371700        1.0000000000
 p  1 1.0
        1.8161849200        1.0000000000
 p  1 1.0
        0.6784075100        1.0000000000
 d  4 1.0
       47.0938321100        0.0346401353
       13.1464639700        0.1833736831
        4.4170548900        0.4455621030
        1.4771565100        0.5627236040
 d  1 1.0
        0.4373592200        1.0000000000
 p  1 1.0
        0.1465880000        1.0000000000
 f  1 1.0
        2.1740000000        1.0000000000
 
  2 0
 s  5 1.0
     1238.4016938000        0.0059599745
      186.2900499200        0.0422621111
       42.2511763500        0.1866575214
       11.6765579300        0.4675815865
        3.5930506500        0.4422897287
 s  1 1.0
        0.4024514700        1.0000000000
 s  1 1.0
        0.1309018300        1.0000000000
 p  3 1.0
        9.4680970600        0.0570294585
        2.0103545100        0.3130471495
        0.5477100500        0.7605135301
 p  1 1.0
        0.1526861400        1.0000000000
 d  1 1.0
        0.8000000000        1.0000000000
 
  3 0
 s  5 1.0
     1238.4016938000        0.0059599745
      186.2900499200        0.0422621111
       42.2511763500        0.1866575214
       11.6765579300        0.4675815865
        3.5930506500        0.4422897287
 s  1 1.0
        0.4024514700        1.0000000000
 s  1 1.0
        0.1309018300        1.0000000000
 p  3 1.0
        9.4680970600        0.0570294585
        2.0103545100        0.3130471495
        0.5477100500        0.7605135301
 p  1 1.0
        0.1526861400        1.0000000000
 d  1 1.0
        0.8000000000        1.0000000000
 
  4 0
 s  3 1.0
       13.0107010000        0.0391282527
        1.9622572000        0.2855840539
        0.4445379600        0.7689908602
 s  1 1.0
        0.1219496200        1.0000000000
 p  1 1.0
        0.8000000000        1.0000000000
 
  5 0
 s  3 1.0
       13.0107010000        0.0391282527
        1.9622572000        0.2855840539
        0.4445379600        0.7689908602
 s  1 1.0
        0.1219496200        1.0000000000
 p  1 1.0
        0.8000000000        1.0000000000
 
  6 0
 s  3 1.0
       13.0107010000        0.0391282527
        1.9622572000        0.2855840539
        0.4445379600        0.7689908602
 s  1 1.0
        0.1219496200        1.0000000000
 p  1 1.0
        0.8000000000        1.0000000000
 
  7 0
 s  3 1.0
       13.0107010000        0.0391282527
        1.9622572000        0.2855840539
        0.4445379600        0.7689908602
 s  1 1.0
        0.1219496200        1.0000000000
 p  1 1.0
        0.8000000000        1.0000000000
 
[5D]
[7F]
[9G]
[MO]
 Ene=  -0.30456806190138E+03
 Spin= Alpha
 Occup=    0.999999
   1      0.779422033815
   2      0.039760261610
   3      0.027813485332
   4     -0.003005249409
   5     -0.009335475880
   6      0.001468785254
   7     -0.000663276112
   8      0.000219235759
   9     -0.000076829295
  10      0.000000779791
  11      0.000000381698
  12     -0.000000439554
  13     -0.000000650051
  14     -0.000002711313
  15      0.000001140882
  16      0.000001010662
  17      0.000007423555
  18     -0.000003171008
  19     -0.000001778642
  20     -0.000013382508
  21      0.000007232429
  22      0.000000688851
  23     -0.000000864029
  24      0.000001104696
  25     -0.000002012669
  26      0.000004724231
  27     -0.000005108615
  28      0.000002722868
  29     -0.000002602789
  30      0.000007006374
  31     -0.000016489468
  32      0.000008431275
  33      0.000054187455
  34     -0.000035792885
  35     -0.000000007215
  36      0.000000038218
  37     -0.000000036619
  38      0.000000055046
  39     -0.000000048261
  40     -0.000000064110
  41     -0.000000329281
  42      0.000000356014
  43      0.000010309087
  44     -0.000070655489
  45      0.000002800637
  46      0.000003023203
  47     -0.000002310390
  48     -0.000000573266
  49      0.000025424247
  50     -0.000017037030
  51      0.000002067012
  52     -0.000002116324
  53      0.000001365158
  54     -0.000001184751
  55      0.000003122267
  56      0.000000240367
  57      0.000010546554
  58     -0.000071140364
  59     -0.000001749392
  60      0.000002890162
  61     -0.000002359491
  62      0.000008972673
  63      0.000024528499
  64     -0.000015756051
  65      0.000002897307
  66      0.000000272874
  67     -0.000000297815
  68     -0.000001406959
  69      0.000003350983
  70      0.000004133256
  71      0.000016049271
  72      0.000001220074
  73     -0.000000358195
  74     -0.000000081377
  75      0.000003976604
  76      0.000015845100
  77      0.000001794391
  78     -0.000000201943
  79      0.000000201365
  80      0.000004014414
  81      0.000017395591
  82     -0.000001184462
  83      0.000000647233
  84     -0.000000150775
  85      0.000004094896
  86      0.000015770054
  87     -0.000001237703
  88      0.000000333855
  89     -0.000000031016
 Ene=  -0.30456702963125E+03
 Spin= Alpha
 Occup=    0.000001
   1     -0.000704566048
   2     -0.000035941047
   3     -0.000025139232
   4      0.000002717918
   5      0.000008434089
   6     -0.000001328011
   7      0.000000599814
   8     -0.000000197414
   9      0.000000068954
  10     -0.000000000487
  11     -0.000000025218
  12      0.000000001450
  13     -0.000000003001
  14      0.000000024172
  15     -0.000000001307
  16     -0.000000001376
  17     -0.000000021686
  18      0.000000003150
  19      0.000000001225
  20      0.000000018420
  21     -0.000000006750
  22     -0.000000000583
  23     -0.000000007222
  24     -0.000000003600
  25      0.000000001320
  26     -0.000000004041
  27      0.000000004821
  28      0.000000001521
  29      0.000000002743
  30     -0.000000006252
  31      0.000000014781
  32     -0.000000004553
  33     -0.000000050379
  34      0.000000032308
  35     -0.000000005860
  36      0.000000003140
  37     -0.000000001028
  38      0.000000007085
  39     -0.000000007033
  40     -0.000000000744
  41      0.000000000857
  42     -0.000000000382
  43     -0.000000007610
  44      0.000000050922
  45     -0.000000002051
  46     -0.000000002741
  47      0.000000002040
  48      0.000000004691
  49     -0.000000021785
  50      0.000000012546
  51     -0.000000001668
  52      0.000000002136
  53     -0.000000001563
  54      0.000000000800
  55     -0.000000002309
  56     -0.000000000227
  57     -0.000000010658
  58      0.000000076324
  59      0.000000002126
  60     -0.000000002718
  61      0.000000002176
  62     -0.000000004988
  63     -0.000000024289
  64      0.000000016609
  65     -0.000000002567
  66      0.000000000278
  67     -0.000000000186
  68      0.000000001402
  69     -0.000000003136
  70     -0.000000003101
  71     -0.000000012819
  72     -0.000000001439
  73      0.000000000177
  74      0.000000000454
  75     -0.000000003682
  76     -0.000000013850
  77     -0.000000001677
  78     -0.000000000165
  79     -0.000000000302
  80     -0.000000003713
  81     -0.000000016137
  82      0.000000001125
  83     -0.000000000346
  84      0.000000000202
  85     -0.000000004337
  86     -0.000000015115
  87      0.000000001011
  88     -0.000000000231
  89     -0.000000000219
 Ene=  -0.36777937988458E+02
 Spin= Alpha
 Occup=    1.000000
   1     -0.043399272707
   2     -0.016639615693
   3      0.095857487147
   4      0.060573326656
   5     -0.007146292437
   6      0.002224757572
   7     -0.000277020876
   8      0.000074972149
   9     -0.000022973447
  10      0.000004541165
  11      0.000027993988
  12     -0.000040749598
  13      0.000001775478
  14      0.000011911119
  15     -0.000004836285
  16     -0.000000260449
  17     -0.000002768403
  18     -0.000000842577
  19     -0.000000448891
  20     -0.000001897643
  21      0.000002684584
  22     -0.000026102913
  23      0.000003330084
  24      0.000004766582
  25     -0.000017950935
  26      0.000041387777
  27      0.000006004114
  28     -0.000000007617
  29     -0.000002383050
  30      0.000008094535
  31     -0.000018851713
  32      0.000003517933
  33      0.000022192370
  34     -0.000015136168
  35      0.000000025671
  36      0.000000012184
  37     -0.000000088499
  38     -0.000000011946
  39     -0.000000096514
  40     -0.000000070994
  41     -0.000000717634
  42      0.000000129112
  43      0.000004685412
  44     -0.000030090686
  45      0.000001269832
  46      0.000001464231
  47     -0.000001026058
  48     -0.000000069275
  49      0.000010740400
  50     -0.000006948829
  51      0.000000968324
  52     -0.000001108807
  53      0.000000746813
  54     -0.000000648499
  55      0.000001760520
  56      0.000000184530
  57      0.000004470742
  58     -0.000028937187
  59     -0.000000763626
  60      0.000002051333
  61     -0.000001074061
  62      0.000003564313
  63      0.000010025824
  64     -0.000007194688
  65      0.000001295418
  66      0.000000241244
  67     -0.000000165988
  68     -0.000000875645
  69      0.000001926056
  70      0.000001670223
  71      0.000006380717
  72      0.000000346448
  73     -0.000000345220
  74      0.000000120358
  75      0.000001707997
  76      0.000006384968
  77      0.000000175515
  78     -0.000000260426
  79      0.000000236015
  80      0.000001692647
  81      0.000005801090
  82     -0.000000469791
  83     -0.000000275749
  84      0.000000326651
  85      0.000001646320
  86      0.000006406907
  87     -0.000000468596
  88     -0.000000325568
  89      0.000000051882
 Ene=  -0.36749889597782E+02
 Spin= Alpha
 Occup=    0.000000
   1      0.000004862155
   2      0.000001863520
   3     -0.000010730792
   4     -0.000006796027
   5      0.000000800600
   6     -0.000000246673
   7      0.000000025755
   8     -0.000000000037
   9      0.000000005777
  10      0.000023789145
  11     -0.000002634036
  12     -0.000000025317
  13     -0.000003422882
  14      0.000000365738
  15     -0.000000000888
  16      0.000002306739
  17     -0.000000245397
  18     -0.000000000217
  19     -0.000000951223
  20      0.000000099762
  21      0.000000000955
  22     -0.000000011507
  23     -0.000000230540
  24     -0.000000160487
  25     -0.000000020628
  26      0.000000011183
  27      0.000000005365
  28      0.000000059081
  29      0.000000046360
  30      0.000000006086
  31     -0.000000005513
  32      0.000000226985
  33     -0.000000018235
  34     -0.000000002673
  35      0.000000034608
  36     -0.000000018132
  37      0.000000006062
  38     -0.000000038755
  39      0.000000040277
  40      0.000000004332
  41     -0.000000002940
  42      0.000000001132
  43     -0.000000006283
  44      0.000000137488
  45     -0.000000003565
  46      0.000000000917
  47      0.000000003198
  48     -0.000000076725
  49      0.000000005713
  50     -0.000000054005
  51      0.000000004123
  52      0.000000002485
  53     -0.000000002416
  54      0.000000002022
  55      0.000000000699
  56     -0.000000000225
  57      0.000000006463
  58     -0.000000141494
  59     -0.000000004090
  60      0.000000001696
  61     -0.000000003761
  62     -0.000000079590
  63      0.000000017472
  64      0.000000042771
  65     -0.000000001648
  66      0.000000004434
  67     -0.000000002409
  68     -0.000000001887
  69      0.000000001877
  70      0.000000012369
  71     -0.000000009140
  72      0.000000006416
  73      0.000000001888
  74     -0.000000001391
  75     -0.000000006164
  76     -0.000000042450
  77      0.000000009484
  78      0.000000002999
  79     -0.000000002044
  80      0.000000004657
  81      0.000000034930
  82      0.000000007265
  83     -0.000000005081
  84      0.000000001416
  85     -0.000000009914
  86      0.000000007860
  87      0.000000006353
  88     -0.000000003125
  89      0.000000001923
 Ene=  -0.32201063720680E+02
 Spin= Alpha
 Occup=    0.689739
   1      0.000045339169
   2      0.000018466655
   3     -0.000180364692
   4     -0.000126828381
   5      0.000129616618
   6      0.000098700828
   7     -0.000104773684
   8      0.000083305509
   9      0.000240704664
  10      0.020116195308
  11      0.523916985829
  12      0.278286658637
  13     -0.000301960169
  14     -0.008577066809
  15     -0.004167221130
  16      0.000553080421
  17      0.014588542006
  18      0.007495295300
  19     -0.000205457681
  20     -0.005256573442
  21     -0.002572808155
  22      0.000000309334
  23     -0.000000943002
  24      0.000002440875
  25      0.000006095011
  26      0.000007070790
  27     -0.000014531560
  28      0.000008287584
  29     -0.000003754177
  30      0.000044794812
  31     -0.000039115087
  32      0.000074654928
  33      0.001396897286
  34      0.000439966998
  35     -0.000007922446
  36     -0.000027607606
  37     -0.000034841631
  38     -0.000002579047
  39      0.000007376955
  40     -0.000056114232
  41      0.000012735918
  42      0.000003668764
  43     -0.000083464089
  44     -0.000116149206
  45      0.000018155218
  46      0.000024074947
  47     -0.000000859349
  48      0.000039430161
  49      0.000050698127
  50     -0.000034501282
  51      0.000002574792
  52      0.000027128905
  53      0.000003613329
  54      0.000027200550
  55     -0.000026842231
  56      0.000002914748
  57     -0.000092789436
  58      0.000039645446
  59     -0.000009844435
  60      0.000025829634
  61      0.000000320438
  62      0.000069447400
  63      0.000067341734
  64     -0.000045549451
  65     -0.000008929774
  66     -0.000024145719
  67     -0.000005434455
  68      0.000035777103
  69     -0.000028723476
  70      0.000036798763
  71     -0.000243602558
  72      0.000045040018
  73      0.000052550559
  74     -0.000017477648
  75      0.000016429725
  76      0.000032623067
  77     -0.000009106262
  78      0.000003977612
  79      0.000029033630
  80      0.000019371686
  81      0.000009127701
  82      0.000002032029
  83      0.000006245600
  84      0.000026960252
  85      0.000039002173
  86     -0.000269724752
  87     -0.000035102656
  88      0.000068350795
  89     -0.000021453672
 Ene=  -0.32189245689239E+02
 Spin= Alpha
 Occup=    0.338239
   1      0.000008496431
   2      0.000004355552
   3     -0.000046077474
   4     -0.000030432389
   5      0.000039346043
   6      0.000025303470
   7     -0.000026025495
   8      0.000021312478
   9      0.000058481277
  10      0.524667385282
  11     -0.008772397230
  12     -0.017069398960
  13     -0.008703317069
  14      0.000150846020
  15      0.000303382640
  16      0.014595985337
  17     -0.000232848261
  18     -0.000493703038
  19     -0.005211339548
  20      0.000064861150
  21      0.000190474066
  22      0.000004741417
  23      0.000015931813
  24     -0.000011038724
  25     -0.000002364271
  26      0.000002950824
  27      0.000003724559
  28      0.000030077434
  29     -0.000020820232
  30      0.000001916807
  31     -0.000008440693
  32      0.001233286372
  33      0.000029978787
  34     -0.000076942193
  35     -0.000004838435
  36     -0.000001227035
  37      0.000001258482
  38     -0.000003658939
  39      0.000009049217
  40     -0.000001141669
  41     -0.000000815764
  42     -0.000002701116
  43     -0.000061669439
  44      0.000713795810
  45     -0.000001698423
  46     -0.000004839787
  47      0.000003846656
  48     -0.000401184928
  49      0.000180330185
  50     -0.000084096767
  51      0.000019688589
  52      0.000040803859
  53     -0.000029544752
  54      0.000001686322
  55     -0.000011325114
  56      0.000004444019
  57      0.000018792324
  58     -0.000734441700
  59     -0.000005591703
  60      0.000015615102
  61     -0.000009141851
  62     -0.000426577810
  63     -0.000026893350
  64      0.000052093168
  65      0.000000104226
  66      0.000035533176
  67     -0.000023501254
  68     -0.000004138526
  69      0.000003864864
  70      0.000020211999
  71     -0.000154341998
  72      0.000047412001
  73      0.000017457141
  74     -0.000015556164
  75      0.000019971325
  76     -0.000144387268
  77      0.000045501905
  78      0.000016657124
  79     -0.000012629816
  80     -0.000006477890
  81      0.000096650496
  82      0.000032903509
  83     -0.000018148884
  84      0.000011576507
  85     -0.000005854668
  86      0.000088113221
  87      0.000031603487
  88     -0.000017442943
  89      0.000008110626
 Ene=  -0.31547128700078E+02
 Spin= Alpha
 Occup=    0.892007
   1     -0.000053004627
   2     -0.000021934133
   3      0.000191876137
   4      0.000092321275
   5     -0.000095632920
   6     -0.000064112457
   7      0.000062442967
   8     -0.000038948938
   9     -0.000151843480
  10      0.038507156832
  11     -0.032749342765
  12      0.641546066187
  13      0.000248339726
  14      0.000206215096
  15      0.003957416537
  16      0.000606949658
  17     -0.000743197874
  18      0.010307535025
  19     -0.000169342381
  20      0.000310835369
  21     -0.003069743144
  22      0.000004026237
  23      0.000002851775
  24      0.000000480027
  25      0.000009852870
  26      0.000012774786
  27      0.000006172369
  28     -0.000001825128
  29      0.000003879694
  30     -0.000002175990
  31      0.000027715143
  32      0.000018879373
  33     -0.000192765158
  34      0.000748793605
  35     -0.000006362679
  36     -0.000021982153
  37     -0.000043674218
  38     -0.000005454341
  39      0.000010347068
  40     -0.000062356858
  41      0.000007684615
  42     -0.000001875505
  43      0.000054029376
  44      0.000056416565
  45     -0.000009300725
  46     -0.000005472018
  47      0.000011640201
  48     -0.000017412755
  49     -0.000028657705
  50      0.000024514181
  51      0.000001420335
  52     -0.000006044435
  53      0.000017043260
  54     -0.000002959784
  55      0.000024274344
  56     -0.000001486321
  57      0.000059196230
  58     -0.000023645451
  59      0.000006726753
  60     -0.000006369492
  61      0.000010893023
  62     -0.000037037845
  63     -0.000033146511
  64      0.000030490278
  65      0.000005207664
  66      0.000006693498
  67     -0.000011855098
  68     -0.000005234477
  69      0.000030194722
  70     -0.000013105581
  71      0.000003811622
  72      0.000002990539
  73      0.000008774694
  74      0.000009461324
  75     -0.000020458260
  76      0.000132603183
  77     -0.000023290548
  78     -0.000019331999
  79      0.000022583315
  80     -0.000021188247
  81      0.000145497865
  82      0.000019712837
  83     -0.000027856737
  84      0.000024431963
  85     -0.000014299168
  86      0.000015285200
  87      0.000002825897
  88      0.000007002317
  89      0.000010883856
 Ene=  -0.31536736992405E+02
 Spin= Alpha
 Occup=    0.658411
   1      0.000011103098
   2      0.000005052438
   3     -0.000046023032
   4     -0.000021071844
   5      0.000026245945
   6      0.000015181974
   7     -0.000014450937
   8      0.000009186276
   9      0.000034412691
  10      0.350660175135
  11      0.013540731723
  12     -0.055759921972
  13      0.001962000633
  14      0.000063288921
  15     -0.000330710676
  16      0.005705609084
  17      0.000233883852
  18     -0.000903962538
  19     -0.001699148555
  20     -0.000082832111
  21      0.000275385382
  22      0.000003566916
  23      0.000015681386
  24     -0.000010631593
  25     -0.000001871827
  26     -0.000000067114
  27     -0.000000223169
  28      0.000004942934
  29     -0.000003811421
  30      0.000001542899
  31     -0.000005168574
  32      0.000385607200
  33      0.000044532704
  34     -0.000078482389
  35     -0.000003419487
  36     -0.000000060547
  37      0.000003164341
  38     -0.000002871012
  39      0.000005640393
  40      0.000002491154
  41     -0.000000404745
  42     -0.000000821208
  43     -0.000027095841
  44      0.000236161662
  45      0.000000004098
  46     -0.000001995540
  47      0.000001080619
  48     -0.000129743771
  49      0.000056322478
  50     -0.000025960510
  51      0.000005039586
  52      0.000014773443
  53     -0.000011327791
  54      0.000001627174
  55     -0.000007455658
  56      0.000001616381
  57      0.000001420433
  58     -0.000244217660
  59     -0.000002418690
  60      0.000006572360
  61     -0.000004305549
  62     -0.000134247225
  63     -0.000000909074
  64      0.000011027865
  65      0.000000457315
  66      0.000010310256
  67     -0.000006591244
  68     -0.000000744530
  69     -0.000000868274
  70      0.000007181521
  71     -0.000053598927
  72      0.000015472833
  73      0.000005827697
  74     -0.000006511832
  75      0.000007534609
  76     -0.000056879150
  77      0.000016296603
  78      0.000007486008
  79     -0.000005468652
  80      0.000000591897
  81      0.000019655993
  82      0.000008818658
  83     -0.000003878262
  84      0.000002149108
  85      0.000000494399
  86      0.000023671497
  87      0.000009260203
  88     -0.000005402640
  89      0.000001793090
 Ene=  -0.31531286015332E+02
 Spin= Alpha
 Occup=    0.416787
   1     -0.000083823477
   2     -0.000034231149
   3      0.000297517743
   4      0.000141275974
   5     -0.000143207781
   6     -0.000096822118
   7      0.000094344080
   8     -0.000057927817
   9     -0.000230302819
  10      0.024199433763
  11     -0.515846885167
  12      0.295600434299
  13      0.000139534581
  14     -0.002989902991
  15      0.001671372921
  16      0.000382775556
  17     -0.008395248792
  18      0.004833438354
  19     -0.000101455516
  20      0.002565286862
  21     -0.001490586434
  22      0.000006502039
  23      0.000002253551
  24     -0.000001483329
  25     -0.000006515765
  26      0.000011863635
  27      0.000008991528
  28     -0.000004230335
  29      0.000004677249
  30     -0.000015788879
  31      0.000036107883
  32     -0.000004067544
  33     -0.000743843687
  34      0.000448326444
  35      0.000002272245
  36      0.000009120328
  37     -0.000002443878
  38     -0.000002147346
  39      0.000001408122
  40      0.000002925258
  41     -0.000008289056
  42     -0.000002996142
  43      0.000081329737
  44      0.000099515044
  45     -0.000014899083
  46     -0.000013889678
  47      0.000009869145
  48     -0.000034788433
  49     -0.000043433872
  50      0.000030587788
  51      0.000000754761
  52     -0.000017115161
  53      0.000013345336
  54     -0.000013538145
  55      0.000033908381
  56     -0.000002235419
  57      0.000091000240
  58     -0.000051933094
  59      0.000009458262
  60     -0.000014698130
  61      0.000008400633
  62     -0.000065229135
  63     -0.000054529210
  64      0.000040654069
  65      0.000009531760
  66      0.000016743383
  67     -0.000008019235
  68     -0.000019517524
  69      0.000040416111
  70     -0.000025247443
  71      0.000105386050
  72     -0.000016212661
  73     -0.000014465570
  74      0.000015682507
  75     -0.000024982581
  76      0.000096784985
  77     -0.000015092044
  78     -0.000017981496
  79      0.000006618397
  80     -0.000026821185
  81      0.000120165172
  82      0.000015816742
  83     -0.000026525031
  84      0.000009294727
  85     -0.000027178394
  86      0.000128512719
  87      0.000017637308
  88     -0.000023065550
  89      0.000018951717
 Ene=  -0.31516800995063E+02
 Spin= Alpha
 Occup=    0.004817
   1      0.000000300320
   2      0.000000213068
   3     -0.000002211305
   4     -0.000000881595
   5      0.000001744153
   6      0.000000746539
   7     -0.000000655261
   8      0.000000448901
   9      0.000001460761
  10      0.062461230996
  11     -0.005709080150
  12     -0.000993514860
  13      0.000392109719
  14     -0.000035634096
  15     -0.000005838227
  16      0.000994080332
  17     -0.000090622657
  18     -0.000016212040
  19     -0.000292606595
  20      0.000026148129
  21      0.000005137216
  22      0.000000767405
  23      0.000002872915
  24     -0.000001955145
  25     -0.000000360197
  26      0.000000258068
  27      0.000000124889
  28      0.000000720644
  29     -0.000000506599
  30      0.000000012733
  31     -0.000000170196
  32      0.000065691793
  33     -0.000004732238
  34     -0.000001919409
  35     -0.000000728966
  36      0.000000091542
  37      0.000000229145
  38     -0.000000501075
  39      0.000000737640
  40      0.000000134912
  41     -0.000000197577
  42     -0.000000228156
  43     -0.000003110230
  44      0.000042207942
  45     -0.000000278206
  46     -0.000000589892
  47      0.000000410238
  48     -0.000022761468
  49      0.000008735908
  50     -0.000003785735
  51      0.000000857420
  52      0.000002236193
  53     -0.000001629587
  54      0.000000064820
  55     -0.000000641994
  56      0.000000260443
  57      0.000002024535
  58     -0.000042658252
  59     -0.000000222014
  60      0.000000865805
  61     -0.000000543096
  62     -0.000024098024
  63     -0.000001143531
  64      0.000002656764
  65      0.000000274625
  66      0.000002045053
  67     -0.000001315396
  68     -0.000000460280
  69      0.000000673656
  70      0.000000756945
  71     -0.000007541900
  72      0.000002412209
  73      0.000000834085
  74     -0.000000824122
  75      0.000000775762
  76     -0.000007408033
  77      0.000002400058
  78      0.000000894164
  79     -0.000000688375
  80     -0.000000428779
  81      0.000006074100
  82      0.000001858345
  83     -0.000001242698
  84      0.000000660658
  85     -0.000000406980
  86      0.000006054944
  87      0.000001857218
  88     -0.000001221105
  89      0.000000665643
 Ene=  -0.10272204075533E+02
 Spin= Alpha
 Occup=    1.000000
   1      0.000000425587
   2      0.000000289174
   3     -0.000019141806
   4     -0.000044151646
   5      0.000042139589
   6      0.000076586522
   7     -0.000043749479
   8     -0.003691767727
   9      0.000535117758
  10     -0.000000576263
  11     -0.000004684835
  12      0.000003190597
  13      0.000002251809
  14      0.000021623375
  15     -0.000014170333
  16     -0.000000048551
  17     -0.000018147995
  18      0.000012140237
  19     -0.000021305191
  20     -0.000121256437
  21      0.000080766130
  22      0.000032797526
  23     -0.000013182261
  24      0.000009890715
  25     -0.000027801452
  26      0.000066462428
  27     -0.000044248934
  28      0.000019393031
  29     -0.000012406244
  30      0.000027379533
  31     -0.000066570849
  32     -0.000226742089
  33     -0.001683929018
  34      0.001122168926
  35     -0.000001919830
  36     -0.000005711288
  37      0.000003665230
  38      0.000000806033
  39     -0.000003665604
  40     -0.000003242161
  41     -0.000016918035
  42     -0.219692738204
  43     -0.011649192555
  44      0.008243061408
  45     -0.000730391145
  46      0.000237782020
  47     -0.000096347305
  48     -0.000146422971
  49     -0.001082893624
  50      0.000723802654
  51      0.000167431419
  52     -0.000087273878
  53     -0.000008183631
  54      0.000208699976
  55     -0.000466347861
  56     -0.233639626502
  57     -0.012477646742
  58      0.009229528283
  59      0.000736188580
  60      0.000020821357
  61     -0.000073910801
  62     -0.000029487005
  63     -0.001130254604
  64      0.000741520578
  65      0.000165349667
  66      0.000083760732
  67     -0.000121175354
  68      0.000201362220
  69     -0.000484678561
  70      0.000804696540
  71     -0.002046295171
  72     -0.000233892254
  73     -0.000307265140
  74     -0.000569614191
  75      0.000805874766
  76     -0.002044219898
  77     -0.000144668203
  78      0.000413473467
  79      0.000530985487
  80      0.000862719458
  81     -0.002178610623
  82      0.000270274565
  83      0.000375706680
  84      0.000581027767
  85      0.000862937300
  86     -0.002177420710
  87      0.000173947747
  88     -0.000399118669
  89     -0.000602007918
 Ene=  -0.10272172534901E+02
 Spin= Alpha
 Occup=    0.000001
   1     -0.000000001016
   2     -0.000000000383
   3      0.000000014282
   4      0.000000029427
   5     -0.000000027367
   6     -0.000000053765
   7      0.000000027243
   8      0.000002583324
   9     -0.000000372313
  10      0.000000027140
  11      0.000000003682
  12     -0.000000008829
  13      0.000000075221
  14     -0.000000077186
  15      0.000000012269
  16      0.000000148692
  17     -0.000000005675
  18     -0.000000002074
  19     -0.000000102529
  20      0.000000093282
  21     -0.000000059163
  22     -0.000000023289
  23     -0.000000017949
  24      0.000000017276
  25      0.000000020997
  26     -0.000000050854
  27      0.000000096300
  28      0.000000235992
  29     -0.000000161612
  30     -0.000000050900
  31      0.000000070456