[Molden Format]
[Title]
generated by TRESC, imaginary part2 of MOs of job Ni0-C2H4
 
[Atoms] AU
Ni   1  28    1.8539796126    6.7825327278   -0.4903308426
 C   2   6    4.6704257640    4.7931727241    1.2726747479
 C   3   6    5.0465532453    4.7581863879   -1.3126919263
 H   4   1    5.6975577332    6.1191094603    2.4870942128
 H   5   1    3.7846974132    3.1964352679    2.2493349313
 H   6   1    4.4712691419    3.1312517299   -2.4574086438
 H   7   1    6.3839198639    6.0535352724   -2.2192553710
[GTO]
  1 0
 s  6 1.0
    71074.8032110000        0.0049184150
    10672.0209410000        0.0200173975
     2428.1389007000        0.0784715325
      685.5359514800        0.2482002663
      223.1007286300        0.4665280195
       76.8420140400        0.3374151926
 s  1 1.0
      148.7112201600        1.0000000000
 s  1 1.0
       17.4591549900        1.0000000000
 s  1 1.0
        7.1625280700        1.0000000000
 s  1 1.0
       12.5561371300        1.0000000000
 s  1 1.0
        2.0735740500        1.0000000000
 s  1 1.0
        0.8538264100        1.0000000000
 s  1 1.0
        0.1053676600        1.0000000000
 s  1 1.0
        0.0381340900        1.0000000000
 p  5 1.0
      916.7360866200        0.0107030171
      216.0613991300        0.0711467350
       68.3839148200        0.2646675976
       24.5938439500        0.5093159720
        9.1392960200        0.3283291628
 p  1 1.0
        4.7193371700        1.0000000000
 p  1 1.0
        1.8161849200        1.0000000000
 p  1 1.0
        0.6784075100        1.0000000000
 d  4 1.0
       47.0938321100        0.0346401353
       13.1464639700        0.1833736831
        4.4170548900        0.4455621030
        1.4771565100        0.5627236040
 d  1 1.0
        0.4373592200        1.0000000000
 p  1 1.0
        0.1465880000        1.0000000000
 f  1 1.0
        2.1740000000        1.0000000000
 
  2 0
 s  5 1.0
     1238.4016938000        0.0059599745
      186.2900499200        0.0422621111
       42.2511763500        0.1866575214
       11.6765579300        0.4675815865
        3.5930506500        0.4422897287
 s  1 1.0
        0.4024514700        1.0000000000
 s  1 1.0
        0.1309018300        1.0000000000
 p  3 1.0
        9.4680970600        0.0570294585
        2.0103545100        0.3130471495
        0.5477100500        0.7605135301
 p  1 1.0
        0.1526861400        1.0000000000
 d  1 1.0
        0.8000000000        1.0000000000
 
  3 0
 s  5 1.0
     1238.4016938000        0.0059599745
      186.2900499200        0.0422621111
       42.2511763500        0.1866575214
       11.6765579300        0.4675815865
        3.5930506500        0.4422897287
 s  1 1.0
        0.4024514700        1.0000000000
 s  1 1.0
        0.1309018300        1.0000000000
 p  3 1.0
        9.4680970600        0.0570294585
        2.0103545100        0.3130471495
        0.5477100500        0.7605135301
 p  1 1.0
        0.1526861400        1.0000000000
 d  1 1.0
        0.8000000000        1.0000000000
 
  4 0
 s  3 1.0
       13.0107010000        0.0391282527
        1.9622572000        0.2855840539
        0.4445379600        0.7689908602
 s  1 1.0
        0.1219496200        1.0000000000
 p  1 1.0
        0.8000000000        1.0000000000
 
  5 0
 s  3 1.0
       13.0107010000        0.0391282527
        1.9622572000        0.2855840539
        0.4445379600        0.7689908602
 s  1 1.0
        0.1219496200        1.0000000000
 p  1 1.0
        0.8000000000        1.0000000000
 
  6 0
 s  3 1.0
       13.0107010000        0.0391282527
        1.9622572000        0.2855840539
        0.4445379600        0.7689908602
 s  1 1.0
        0.1219496200        1.0000000000
 p  1 1.0
        0.8000000000        1.0000000000
 
  7 0
 s  3 1.0
       13.0107010000        0.0391282527
        1.9622572000        0.2855840539
        0.4445379600        0.7689908602
 s  1 1.0
        0.1219496200        1.0000000000
 p  1 1.0
        0.8000000000        1.0000000000
 
[5D]
[7F]
[9G]
[MO]
 Ene=   0.88331028600091E+00
 Spin= Alpha
 Occup=    0.000000
   1     -0.000012256291
   2     -0.000005418785
   3      0.000030474094
   4      0.000002044316
   5      0.000039104499
   6     -0.000077844575
   7     -0.000286886736
   8      0.003412338567
   9     -0.000177710081
  10      0.000003098341
  11      0.000012972636
  12     -0.000011389683
  13     -0.000003594987
  14     -0.000014019001
  15      0.000013231665
  16     -0.000000543056
  17     -0.000023329846
  18      0.000022048178
  19     -0.000028253169
  20     -0.000051286924
  21      0.000021053611
  22     -0.001012232287
  23      0.000220311351
  24     -0.000027502867
  25     -0.000601590139
  26      0.000175372838
  27      0.002706329377
  28     -0.000283036784
  29     -0.000159128175
  30      0.001764005418
  31     -0.001039327225
  32      0.000623311246
  33      0.002080371609
  34     -0.001275862495
  35     -0.000000688987
  36     -0.000003787839
  37      0.000002059886
  38      0.000000365941
  39     -0.000000854026
  40     -0.000000954063
  41     -0.000003098013
  42     -0.000185527879
  43      0.002258243774
  44     -0.007425296394
  45      0.000010238062
  46     -0.000159090270
  47      0.000322365779
  48      0.000151086436
  49      0.000903245380
  50     -0.001403184063
  51     -0.000101527466
  52      0.000071181238
  53      0.000008507872
  54     -0.000234071684
  55     -0.000072254292
  56     -0.000127423297
  57      0.001538881296
  58     -0.002726562078
  59     -0.000143908242
  60     -0.000074067354
  61      0.000266460448
  62      0.001629529283
  63      0.000466282806
  64     -0.001058113917
  65     -0.000094025802
  66     -0.000063905525
  67     -0.000051280178
  68     -0.000204141104
  69     -0.000109561764
  70      0.000954743989
  71      0.001450694255
  72      0.000004497541
  73      0.000003052355
  74      0.000051374215
  75      0.000689191400
  76      0.000781187508
  77     -0.000142127514
  78      0.000145154551
  79     -0.000263981862
  80      0.000465402461
  81      0.000560278004
  82      0.000175636778
  83      0.000099580946
  84     -0.000236450492
  85      0.000651210379
  86      0.001147105799
  87     -0.000011984507
  88     -0.000027292873
  89      0.000053127103
 Ene=   0.10568150778856E+01
 Spin= Alpha
 Occup=    0.000000
   1     -0.000087151408
   2     -0.000041458093
   3      0.000545945556
   4      0.000801494950
   5     -0.000494707428
   6     -0.002105867286
   7      0.001187461012
   8      0.000933793795
   9      0.001294303056
  10     -0.000390648447
  11     -0.003297120443
  12     -0.006077047382
  13      0.000363968825
  14      0.003247683083
  15      0.005167488218
  16      0.001215438394
  17      0.010416458958
  18      0.020400620984
  19     -0.001233137354
  20     -0.011545409740
  21     -0.021476147918
  22     -0.003888926284
  23     -0.027442858847
  24     -0.014908051846
  25     -0.195492864712
  26     -0.078458313402
  27      0.005470019311
  28      0.038180939306
  29      0.020519902480
  30      0.273198757955
  31      0.106517156092
  32     -0.001151651000
  33     -0.007124546929
  34     -0.015578114273
  35     -0.000001449773
  36      0.000007769056
  37      0.000015831765
  38      0.000093186848
  39     -0.000012689838
  40      0.000499416328
  41     -0.000097250313
  42      0.000270663905
  43     -0.000080404487
  44     -0.002292241162
  45      0.001517996258
  46      0.010926799785
  47      0.011565381510
  48     -0.005587158066
  49     -0.037523432732
  50     -0.055816029799
  51      0.001208132692
  52      0.000428408131
  53      0.013554057764
  54     -0.125619139915
  55     -0.056614261455
  56      0.000276005424
  57      0.000177267705
  58     -0.004506826342
  59      0.001280648996
  60      0.011055935984
  61      0.011748303432
  62     -0.004596438176
  63     -0.039721829723
  64     -0.059515494211
  65     -0.006604942099
  66     -0.034135521193
  67     -0.032724650447
  68     -0.119586972233
  69     -0.050263260555
  70      0.013956588532
  71      0.041894015961
  72      0.022423574093
  73     -0.096317145178
  74      0.051009599587
  75     -0.011933569572
  76     -0.041246977631
  77     -0.023004125159
  78      0.088865104461
  79     -0.066672482499
  80     -0.012740021636
  81     -0.042596769014
  82      0.049465637139
  83      0.078039614877
  84     -0.065577946854
  85      0.015144027024
  86      0.043474928790
  87     -0.050584844897
  88     -0.085356120178
  89      0.049725119660
 Ene=   0.10693339418475E+01
 Spin= Alpha
 Occup=    0.000000
   1      0.000014105122
   2      0.000006757871
   3     -0.000091748214
   4     -0.000137301556
   5      0.000087588546
   6      0.000357037888
   7     -0.000222374000
   8     -0.000005710849
   9     -0.000221988779
  10      0.000065053573
  11     -0.000087965821
  12      0.000052288099
  13     -0.000307498690
  14      0.000056632899
  15     -0.000011516415
  16     -0.000191800394
  17      0.000375786111
  18     -0.000230769128
  19      0.001138223679
  20     -0.000470859972
  21      0.000214760088
  22      0.000039484050
  23      0.000061638121
  24     -0.000347992422
  25      0.000266298228
  26     -0.000584529884
  27     -0.000296590303
  28     -0.000794246593
  29      0.001937230327
  30     -0.000430572736
  31      0.000926481368
  32     -0.002178371097
  33      0.000065985631
  34      0.000132557476
  35     -0.000005978248
  36      0.000002486092
  37     -0.000003958001
  38     -0.000008851458
  39     -0.000008996564
  40      0.000001991064
  41      0.000002800690
  42     -0.000009689797
  43     -0.001110648959
  44      0.009268277453
  45     -0.000138074744
  46     -0.000101794238
  47      0.000450597874
  48     -0.002730273489
  49     -0.002550457534
  50     -0.002808476042
  51      0.000097726775
  52     -0.000270598679
  53      0.000398440420
  54      0.000180322922
  55      0.000144104320
  56     -0.000080849408
  57      0.001183011582
  58     -0.008443293688
  59     -0.000160612231
  60     -0.000608137691
  61      0.000037693423
  62     -0.002122910656
  63      0.003557429564
  64      0.002549991808
  65      0.000118242446
  66      0.000299018820
  67     -0.000025255772
  68     -0.000340231763
  69      0.000151919464
  70      0.000151517818
  71      0.000636399922
  72      0.000090914698
  73     -0.000141205549
  74     -0.000114236671
  75     -0.001717639519
  76     -0.001676724397
  77     -0.000275602503
  78     -0.000522994326
  79      0.000254374603
  80      0.001390661274
  81      0.001591688101
  82     -0.000103414985
  83      0.000213190909
  84     -0.000010298474
  85     -0.000480295779
  86     -0.000723017300
  87      0.000128759966
  88     -0.000262374457
  89      0.000350971731
 Ene=   0.11176967039389E+01
 Spin= Alpha
 Occup=    0.000000
   1      0.001731413810
   2      0.000862761884
   3     -0.014885683238
   4     -0.025443829882
   5      0.019226617250
   6      0.060384227894
   7     -0.059974629347
   8      0.198112345696
   9     -0.039330215295
  10     -0.002770145795
  11     -0.018252981408
  12      0.010797904643
  13      0.001731421942
  14      0.012352235961
  15     -0.005392075259
  16      0.012618242313
  17      0.082325386313
  18     -0.050195090106
  19     -0.017441903636
  20     -0.116117235861
  21      0.065857090201
  22     -0.084353781920
  23      0.028971011981
  24     -0.015463395397
  25      0.035752510123
  26     -0.093059053629
  27      0.109483236615
  28     -0.037297453777
  29      0.018792768431
  30     -0.045171596272
  31      0.112928705981
  32      0.018331455837
  33      0.121035411054
  34     -0.076926090915
  35      0.000163280123
  36      0.000404636649
  37     -0.000253017608
  38     -0.000076180361
  39      0.000169807737
  40      0.000143673128
  41      0.000510282602
  42     -0.013012657603
  43      0.087354131214
  44     -0.152489889374
  45     -0.016395855294
  46     -0.067932116539
  47      0.045115248234
  48      0.026125101686
  49      0.094490066279
  50     -0.062356747285
  51     -0.008767474860
  52     -0.076382295693
  53      0.053662147283
  54     -0.007845997445
  55      0.025288515730
  56     -0.013071915411
  57      0.087897965729
  58     -0.155763111984
  59     -0.004878560759
  60     -0.069830567535
  61      0.045558539751
  62      0.002657602888
  63      0.098116387138
  64     -0.064406860157
  65      0.029902462722
  66      0.064752924789
  67     -0.043971311166
  68     -0.027516928046
  69      0.041685426433
  70     -0.000560606033
  71      0.020410899671
  72     -0.018451877209
  73     -0.034155119024
  74      0.034921994170
  75     -0.000360537185
  76      0.022329588346
  77     -0.019595493876
  78     -0.037855969500
  79      0.015779930372
  80     -0.000527815607
  81      0.021927175758
  82      0.007753651170
  83     -0.042068090068
  84      0.016085865295
  85     -0.000137103280
  86      0.020842678023
  87      0.007085939351
  88     -0.037814964040
  89      0.035333185812
 Ene=   0.11339617338846E+01
 Spin= Alpha
 Occup=    0.000000
   1      0.000000072201
   2      0.000000035784
   3     -0.000000529454
   4     -0.000000841592
   5      0.000000589759
   6      0.000001985618
   7     -0.000001092150
   8     -0.000020348920
   9      0.000003190216
  10      0.000471279236
  11      0.000020142578
  12      0.000141661429
  13     -0.001099288498
  14     -0.000022123016
  15     -0.000291176899
  16     -0.001553840356
  17     -0.000076115310
  18     -0.000483427417
  19      0.004207160748
  20      0.000127060423
  21      0.001183217333
  22     -0.000155366392
  23     -0.000457672012
  24      0.001079381046
  25      0.000146341590
  26     -0.000127539560
  27      0.000529916138
  28      0.001685882335
  29     -0.003079429983
  30     -0.000096562153
  31      0.000531198226
  32      0.000012821383
  33     -0.000269942738
  34     -0.000379084577
  35      0.000000389764
  36      0.000000208816
  37      0.000000545289
  38      0.000007580951
  39      0.000009707702
  40     -0.000006842026
  41     -0.000000624090
  42     -0.000150976556
  43      0.002771534557
  44     -0.018447281850
  45      0.000056626753
  46     -0.000244662019
  47     -0.000127829618
  48      0.005394739323
  49      0.001802884994
  50      0.002756442347
  51     -0.000145809306
  52      0.000186176492
  53     -0.000379857372
  54      0.000165696065
  55      0.000031201019
  56      0.000150715650
  57     -0.002782708907
  58      0.018482780729
  59      0.000127918537
  60      0.000304645420
  61      0.000275916786
  62      0.004709291252
  63     -0.003442069068
  64     -0.002863304703
  65      0.000253781978
  66      0.000207719328
  67     -0.000197445590
  68      0.000456205730
  69      0.000350087550
  70      0.000259124937
  71      0.000583505507
  72      0.000088130374
  73      0.000576084591
  74     -0.000199694569
  75      0.001993534455
  76      0.002591285629
  77      0.000516629023
  78      0.000326365834
  79     -0.000072600814
  80     -0.002006847077
  81     -0.002860338412
  82      0.000217053965
  83     -0.001196349011
  84      0.000502636298
  85     -0.000261748520
  86     -0.000321034526
  87      0.000088312204
  88      0.000082116458
  89     -0.000328389105
 Ene=   0.11816075526159E+01
 Spin= Alpha
 Occup=    0.000000
   1      0.002257266356
   2      0.001052537083
   3     -0.011501397047
   4     -0.014303443805
   5      0.006533960874
   6      0.041636329454
   7     -0.004255692002
   8     -0.259515903064
   9      0.017219424697
  10     -0.001691471050
  11     -0.011105123750
  12      0.006893009411
  13      0.001098788606
  14      0.007387179077
  15     -0.004200240389
  16      0.007546522060
  17      0.049438289750
  18     -0.031085730760
  19     -0.009750689179
  20     -0.064528109311
  21      0.039602385489
  22      0.402649882076
  23     -0.085673665480
  24     -0.022832960627
  25      0.105288083733
  26     -0.232924138805
  27     -0.589791797715
  28      0.122869477045
  29      0.038053700412
  30     -0.168727281791
  31      0.370868425512
  32     -0.021988898829
  33     -0.137571883276
  34      0.092046849955
  35      0.000180442419
  36      0.000456748694
  37     -0.000304617234
  38     -0.000095939396
  39      0.000177601354
  40      0.000133192480
  41      0.000533480629
  42      0.014830892797
  43     -0.194576722675
  44      0.499976364107
  45     -0.008808411170
  46     -0.005538152852
  47      0.004133183783
  48      0.064253435103
  49     -0.072381263494
  50      0.041043034688
  51      0.045168385230
  52     -0.020461323193
  53      0.010240443346
  54     -0.014954602191
  55      0.033251368515
  56      0.014569214567
  57     -0.192542853618
  58      0.488824205862
  59      0.007430780294
  60     -0.008653997713
  61      0.004489269977
  62     -0.087924907181
  63     -0.047634890272
  64      0.041683304477
  65      0.048194953486
  66     -0.009527743999
  67      0.001881548239
  68     -0.016821782911
  69      0.034681478101
  70     -0.061877365222
  71     -0.119759240961
  72      0.024474234856
  73     -0.059169287745
  74      0.002108521151
  75     -0.062374988269
  76     -0.119995942612
  77      0.028326853449
  78     -0.023785755066
  79      0.048209843790
  80     -0.061243484657
  81     -0.118517339413
  82     -0.035639093598
  83     -0.013728759599
  84      0.047349577086
  85     -0.062449295739
  86     -0.120393878155
  87     -0.040544760932
  88     -0.049981871567
  89      0.001431057156
 Ene=   0.12458841682315E+01
 Spin= Alpha
 Occup=    0.000000
   1     -0.000004960634
   2     -0.000002308973
   3      0.000024775406
   4      0.000030174541
   5     -0.000013146467
   6     -0.000089091093
   7      0.000004463987
   8      0.000640360353
   9     -0.000049128614
  10      0.000000217655
  11      0.000016899849
  12     -0.000028507887
  13     -0.000001029752
  14     -0.000009852236
  15      0.000018876561
  16     -0.000002807961
  17     -0.000081497339
  18      0.000123930055
  19      0.000010505639
  20      0.000110274624
  21     -0.000159993779
  22     -0.001058232412
  23      0.000416537905
  24      0.000269337496
  25     -0.000256524830
  26      0.000587638821
  27      0.001408393594
  28     -0.000603820798
  29     -0.000368303873
  30      0.000311066923
  31     -0.000904309876
  32     -0.000001837252
  33      0.000316996970
  34     -0.000257848145
  35     -0.000000551269
  36     -0.000001056175
  37      0.000000421089
  38     -0.000000991814
  39     -0.000001118070
  40      0.000000927788
  41     -0.000001153415
  42     -0.000037206757
  43      0.000441993550
  44     -0.000809505647
  45      0.000004342774
  46      0.000079645718
  47      0.000134709645
  48     -0.000295357150
  49     -0.000640504756
  50     -0.001344392392
  51     -0.000105385770
  52      0.000061099460
  53      0.000170351861
  54     -0.000577667379
  55     -0.000369599755
  56     -0.000038632202
  57      0.000536294660
  58     -0.001517105409
  59     -0.000020115931
  60     -0.000103718114
  61     -0.000153768901
  62      0.000193820845
  63      0.001064264130
  64      0.001257366086
  65     -0.000086730125
  66      0.000238864155
  67      0.000189962862
  68      0.000456032210
  69      0.000069354770
  70      0.000399326919
  71      0.000762415650
  72      0.000224605643
  73     -0.000778590697
  74      0.000465676882
  75     -0.000158193388
  76     -0.000281929588
  77     -0.000409097225
  78      0.000841027483
  79     -0.000761819548
  80      0.000506974511
  81      0.000873707406
  82     -0.000405273680
  83     -0.000431959678
  84      0.000379213230
  85     -0.000146225758
  86     -0.000280870691
  87      0.000629043413
  88      0.000766767326
  89     -0.000273919398
 Ene=   0.12463516136846E+01
 Spin= Alpha
 Occup=    0.000000
   1      0.000004098656
   2      0.000001640135
   3     -0.000018050193
   4     -0.000028720490
   5      0.000011469951
   6      0.000080694887
   7     -0.000033984117
   8     -0.000053768211
   9     -0.000001949244
  10     -0.000019317501
  11     -0.000060147007
  12     -0.000052616044
  13      0.000013751001
  14      0.000041774733
  15      0.000032829507
  16      0.000073772373
  17      0.000265849599
  18      0.000249982280
  19     -0.000090730511
  20     -0.000361454134
  21     -0.000353375568
  22      0.007344727633
  23      0.033471809269
  24      0.052538175455
  25     -0.004411473755
  26     -0.006715273456
  27     -0.008311939665
  28     -0.037882855465
  29     -0.059692504553
  30      0.004394850674
  31      0.007415131689
  32      0.000228659757
  33     -0.000258335999
  34     -0.000300934139
  35     -0.000035474067
  36     -0.000205273849
  37     -0.000116025704
  38     -0.000923098792
  39     -0.000392385361
  40      0.000175965305
  41      0.000055561144
  42     -0.000001656851
  43      0.000218767560
  44     -0.001699685834
  45      0.005508174715
  46      0.044409280267
  47      0.067842907556
  48     -0.050987874303
  49     -0.416184834201
  50     -0.635926080115
  51      0.008949660546
  52      0.027741696326
  53      0.072137323145
  54     -0.217566475456
  55     -0.100604881073
  56     -0.000008367420
  57     -0.000205641773
  58      0.002351221276
  59     -0.005424011847
  60     -0.044633125795
  61     -0.068081653552
  62      0.052255691997
  63      0.416471669311
  64      0.636583385839
  65      0.015909505007
  66      0.085327647181
  67      0.104041667621
  68      0.197481945706
  69      0.076304695567
  70      0.149442770489
  71      0.261422597765
  72      0.139284783642
  73     -0.343147567865
  74      0.136344875943
  75     -0.149304002473
  76     -0.261414028675
  77     -0.148025677915
  78      0.273083638347
  79     -0.243587762317
  80      0.149236032098
  81      0.261418326678
  82     -0.226494909799
  83     -0.216918752434
  84      0.237831611655
  85     -0.149633949619
  86     -0.261933985757
  87      0.235392815871
  88      0.287405742837
  89     -0.129916452100
 Ene=   0.12537144781828E+01
 Spin= Alpha
 Occup=    0.000000
   1      0.000000329004
   2      0.000000147564
   3     -0.000002418771
   4     -0.000004459605
   5      0.000003079202
   6      0.000010795206
   7     -0.000009260198
   8     -0.000002363073
   9      0.000000253995
  10     -0.000029846603
  11      0.000083133265
  12      0.000123420904
  13      0.000101314253
  14     -0.000105546406
  15     -0.000141853563
  16      0.000097180088
  17     -0.000323989245
  18     -0.000486766323
  19     -0.000408552116
  20      0.000571347440
  21      0.000804506719
  22     -0.003211084485
  23     -0.014852148246
  24     -0.022599783279
  25      0.002005210305
  26      0.002827503453
  27      0.005633685457
  28      0.025904780077
  29      0.038859888099
  30     -0.003360597464
  31     -0.004811381194
  32      0.000736271899
  33     -0.000141304172
  34     -0.000054334587
  35     -0.000006288306
  36     -0.000051344239
  37     -0.000027902296
  38     -0.000225622731
  39     -0.000092811989
  40      0.000037254852
  41      0.000014193800
  42     -0.000001541725
  43      0.000332256512
  44     -0.002810106028
  45      0.000638230873
  46      0.004681982544
  47      0.007195517025
  48     -0.005103659781
  49     -0.047415070282
  50     -0.072858465579
  51      0.000814167438
  52      0.003616888763
  53      0.005986936771
  54     -0.003767243275
  55     -0.002157401305
  56      0.000004428177
  57     -0.000361497798
  58      0.002930538370
  59     -0.000494305672
  60     -0.004551258573
  61     -0.006966601415
  62      0.006548120795
  63      0.046743583024
  64      0.072174518891
  65      0.001001420417
  66      0.004618833177
  67      0.006633966205
  68      0.003104837815
  69      0.000767509607
  70      0.018259795749
  71      0.027514783332
  72      0.011799540309
  73     -0.009202851828
  74     -0.005518742558
  75     -0.017859022465
  76     -0.027231088757
  77     -0.012938983647
  78     -0.000334378183
  79     -0.009306816734
  80      0.017679060990
  81      0.026752768639
  82     -0.012658944223
  83      0.002793835633
  84      0.009453571311
  85     -0.018112237664
  86     -0.027131447071
  87      0.013834289220
  88      0.006409667642
  89      0.004909105528
 Ene=   0.12854677714906E+01
 Spin= Alpha
 Occup=    0.000000
   1      0.000004120297
   2      0.000001865898
   3     -0.000012430242
   4     -0.000003978027
   5     -0.000009064768
   6      0.000030443317
   7      0.000076161498
   8     -0.000967867323
   9      0.000115059962
  10     -0.000342957139
  11      0.000019736184
  12     -0.000010217218
  13      0.000276085460
  14     -0.000014557904
  15      0.000005014515
  16      0.001382940257
  17     -0.000064495430
  18      0.000046077446
  19     -0.001774302125
  20      0.000052194323
  21     -0.000065524694
  22      0.019010598602
  23      0.079082208690
  24      0.117799390955
  25     -0.012975017851
  26     -0.016677300007
  27     -0.029944970356
  28     -0.126286851319
  29     -0.183784363798
  30      0.020861747313
  31      0.025968329234
  32     -0.003746721716
  33      0.000128979399
  34      0.000402028645
  35      0.000021398839
  36      0.000184801122
  37      0.000096521682
  38      0.000808259912
  39      0.000325689184
  40     -0.000155495912
  41     -0.000043714388
  42      0.000173824557
  43     -0.004854414540
  44      0.031056599503
  45     -0.002274715369
  46     -0.013720309373
  47     -0.021447651061
  48      0.010222594911
  49      0.140094069018
  50      0.216030395037
  51     -0.002190934338
  52     -0.012942293729
  53     -0.017611664234
  54     -0.007157839314
  55     -0.001053190775
  56     -0.000052555499
  57      0.003444363960
  58     -0.028122767335
  59      0.001112121422
  60      0.013925580893
  61      0.021294089027
  62     -0.024478725927
  63     -0.138462590244
  64     -0.215698815285
  65     -0.002633838880
  66     -0.010416011256
  67     -0.016282310087
  68      0.010970861965
  69      0.005830772836
  70     -0.055175988335
  71     -0.081214737145
  72     -0.038419695836
  73      0.002264695611
  74      0.042848301219
  75      0.050450149973
  76      0.075878065956
  77      0.041970800136
  78      0.033294968634
  79      0.016198441934
  80     -0.050727143218
  81     -0.076327440351
  82      0.030785646272
  83     -0.043755763754
  84     -0.014943535922
  85      0.054845267456
  86      0.080401618982
  87     -0.036537695909
  88      0.008218139043
  89     -0.043853655353
 Ene=   0.13031077149403E+01
 Spin= Alpha
 Occup=    0.000000
   1      0.000025795667
   2      0.000012009647
   3     -0.000130005063
   4     -0.000159127673
   5      0.000071128922
   6      0.000461716683
   7     -0.000013963124
   8     -0.003805738639
   9      0.000371492084
  10      0.000100822588
  11      0.000312190748
  12      0.000792219898
  13     -0.000085284914
  14     -0.000254894327
  15     -0.000541160337
  16     -0.000403795130
  17     -0.001233382765
  18     -0.003421740478
  19      0.000546274862
  20      0.001660612755
  21      0.004572313993
  22      0.007143375573
  23     -0.003190641918
  24     -0.000899844135
  25     -0.004375279300
  26     -0.006611874840
  27     -0.008797009030
  28      0.004799609250
  29      0.001216492733
  30      0.007911551867
  31      0.009913939976
  32      0.000318580494
  33     -0.001415018863
  34      0.002137382475
  35      0.000002474377
  36      0.000001351471
  37     -0.000000032581
  38     -0.000010680037
  39      0.000003541226
  40     -0.000037149437
  41      0.000017266264
  42      0.000268770623
  43     -0.002627529348
  44      0.002311306778
  45      0.000210699257
  46      0.000584867065
  47      0.000775369188
  48      0.001212666009
  49     -0.003057554089
  50     -0.002691507900
  51      0.001037042047
  52      0.000276222176
  53     -0.000137438636
  54      0.002041089600
  55      0.001596040453
  56      0.000303610793
  57     -0.003980162848
  58      0.011810131161
  59      0.000152720715
  60      0.000534994240
  61      0.000636594709
  62      0.000241982812
  63     -0.002531236458
  64     -0.001310605470
  65      0.001077226521
  66     -0.000001558632
  67      0.000695310124
  68      0.001963001691
  69      0.001599914441
  70      0.000387964109
  71      0.000306572711
  72      0.002175167955
  73      0.002351417571
  74     -0.004414790270
  75     -0.001174062060
  76     -0.002867573231
  77     -0.000799016484
  78     -0.005147480082
  79      0.002303324192
  80     -0.001636368725
  81     -0.003242511547
  82     -0.000847399403
  83     -0.005300233384
  84      0.002659531846
  85     -0.000617372659
  86     -0.000913524901
  87     -0.000914532232
  88      0.002435236176
  89     -0.003941949271
 Ene=   0.13230516223804E+01
 Spin= Alpha
 Occup=    0.000000
   1     -0.000024204371
   2     -0.000012144287
   3      0.000258151615
   4      0.000487650703
   5     -0.000394538736
   6     -0.001096874204
   7      0.001346611350
   8     -0.005679139496
   9      0.001535822978
  10     -0.002590908736
  11     -0.022623586669
  12     -0.034448994506
  13      0.001861379914
  14      0.016835089916
  15      0.024091797296
  16      0.011066228356
  17      0.096490326967
  18      0.148234255663
  19     -0.015064037334
  20     -0.133351603249
  21     -0.200985918397
  22      0.003553761360
  23      0.044170426588
  24      0.024273992833
  25      0.335112261172
  26      0.145798344952
  27     -0.005251674503
  28     -0.069325898668
  29     -0.037934861860
  30     -0.526896066956
  31     -0.226656828462