[Molden Format]
[Title]
generated by TRESC, real part2 of MOs of job twisted_C2H4
 
[Atoms] AU
 C   1   6    0.0000000000    0.0000000000    1.3668709329
 H   2   1    0.0000000000    1.7631351343    2.4609882652
 H   3   1    0.0000000000   -1.7631351343    2.4609882652
 C   4   6    0.0000000000    0.0000000000   -1.3668709329
 H   5   1    1.7631351343    0.0000000000   -2.4609882652
 H   6   1   -1.7631351343    0.0000000000   -2.4609882652
[GTO]
  1 0
 s  5 1.0
     1238.4016938000        0.0059599745
      186.2900499200        0.0422621111
       42.2511763500        0.1866575214
       11.6765579300        0.4675815865
        3.5930506500        0.4422897287
 s  1 1.0
        0.4024514700        1.0000000000
 s  1 1.0
        0.1309018300        1.0000000000
 p  3 1.0
        9.4680970600        0.0570294585
        2.0103545100        0.3130471495
        0.5477100500        0.7605135301
 p  1 1.0
        0.1526861400        1.0000000000
 d  1 1.0
        0.8000000000        1.0000000000
 
  2 0
 s  3 1.0
       13.0107010000        0.0391282527
        1.9622572000        0.2855840539
        0.4445379600        0.7689908602
 s  1 1.0
        0.1219496200        1.0000000000
 p  1 1.0
        0.8000000000        1.0000000000
 
  3 0
 s  3 1.0
       13.0107010000        0.0391282527
        1.9622572000        0.2855840539
        0.4445379600        0.7689908602
 s  1 1.0
        0.1219496200        1.0000000000
 p  1 1.0
        0.8000000000        1.0000000000
 
  4 0
 s  5 1.0
     1238.4016938000        0.0059599745
      186.2900499200        0.0422621111
       42.2511763500        0.1866575214
       11.6765579300        0.4675815865
        3.5930506500        0.4422897287
 s  1 1.0
        0.4024514700        1.0000000000
 s  1 1.0
        0.1309018300        1.0000000000
 p  3 1.0
        9.4680970600        0.0570294585
        2.0103545100        0.3130471495
        0.5477100500        0.7605135301
 p  1 1.0
        0.1526861400        1.0000000000
 d  1 1.0
        0.8000000000        1.0000000000
 
  5 0
 s  3 1.0
       13.0107010000        0.0391282527
        1.9622572000        0.2855840539
        0.4445379600        0.7689908602
 s  1 1.0
        0.1219496200        1.0000000000
 p  1 1.0
        0.8000000000        1.0000000000
 
  6 0
 s  3 1.0
       13.0107010000        0.0391282527
        1.9622572000        0.2855840539
        0.4445379600        0.7689908602
 s  1 1.0
        0.1219496200        1.0000000000
 p  1 1.0
        0.8000000000        1.0000000000
 
[5D]
[7F]
[9G]
[MO]
 Ene=   0.71642296556074E+00
 Spin= Alpha
 Occup=    0.000000
   1      0.000000065518
   2     -0.000000015836
   3     -0.000006178602
   4     -0.000002479204
   5      0.000000004300
   6     -0.000000011778
   7      0.000007968998
   8      0.000000002838
   9      0.000000029014
  10     -0.000000175967
  11     -0.000000001026
  12      0.000000001315
  13     -0.000000360069
  14     -0.000002949316
  15      0.000001237048
  16     -0.000002715203
  17      0.000000036824
  18     -0.000002534033
  19      0.000000334824
  20      0.000001233674
  21     -0.000002674811
  22      0.000000034888
  23      0.000002534417
  24     -0.000000331540
  25      0.000000340029
  26     -0.000002368836
  27      0.000012390265
  28     -0.000001211181
  29      0.000000016501
  30     -0.000000003296
  31      0.000005553692
  32     -0.000000038475
  33     -0.000000002803
  34      0.000000217718
  35      0.000000002351
  36     -0.000000000188
  37     -0.000000110518
  38     -0.000002952009
  39     -0.000000510902
  40     -0.000000358403
  41     -0.000000087636
  42     -0.000000027935
  43     -0.000002536975
  44     -0.000000503554
  45     -0.000000415181
  46     -0.000000090362
  47      0.000000023378
  48      0.000002537619
 Ene=   0.71642728213389E+00
 Spin= Alpha
 Occup=    0.000000
   1      0.000000066272
   2     -0.000000022944
   3     -0.000006116478
   4     -0.000002466050
   5     -0.000000004425
   6     -0.000000012179
   7      0.000007920842
   8     -0.000000001607
   9      0.000000027156
  10     -0.000000174811
  11      0.000000000837
  12      0.000000001779
  13     -0.000000358219
  14      0.000002277496
  15      0.000001232225
  16     -0.000002706350
  17      0.000000037117
  18      0.000002113799
  19      0.000000333519
  20      0.000001225612
  21     -0.000002664817
  22      0.000000034869
  23     -0.000002114083
  24     -0.000000330098
  25      0.000000338802
  26     -0.000002358970
  27      0.000012321123
  28     -0.000001199439
  29     -0.000000015898
  30     -0.000000002876
  31      0.000005508147
  32      0.000000035306
  33     -0.000000001747
  34      0.000000216329
  35     -0.000000002474
  36     -0.000000000308
  37     -0.000000109090
  38     -0.000002273734
  39     -0.000000497408
  40     -0.000000419938
  41     -0.000000090048
  42     -0.000000022483
  43     -0.000002111132
  44     -0.000000506320
  45     -0.000000365331
  46     -0.000000087213
  47      0.000000026884
  48      0.000002111370
 Ene=   0.75464731150787E+00
 Spin= Alpha
 Occup=    0.000000
   1     -0.000001671800
   2      0.000012776790
   3     -0.000099322585
   4     -0.000021799004
   5     -0.000000003553
   6      0.000000028366
   7      0.000075488290
   8      0.000000021319
   9     -0.000000070246
  10     -0.000002775873
  11     -0.000000001063
  12     -0.000000003221
  13     -0.000002449941
  14      0.000010894528
  15      0.000008031826
  16     -0.000012555667
  17     -0.000000304135
  18      0.000006303296
  19      0.000002209866
  20      0.000008038275
  21     -0.000012648708
  22     -0.000000298730
  23     -0.000006303061
  24     -0.000002218427
  25      0.000001671326
  26     -0.000012774227
  27      0.000099316890
  28     -0.000021800059
  29      0.000000039110
  30      0.000000001636
  31      0.000075489885
  32     -0.000000094442
  33      0.000000013455
  34      0.000002775970
  35      0.000000004762
  36      0.000000000837
  37     -0.000002449957
  38      0.000010893404
  39     -0.000008042516
  40      0.000012668851
  41     -0.000000297128
  42     -0.000002220369
  43      0.000006303979
  44     -0.000008030832
  45      0.000012542043
  46     -0.000000305439
  47      0.000002208913
  48     -0.000006305787
 Ene=   0.77222203801599E+00
 Spin= Alpha
 Occup=    0.000000
   1     -0.000000001285
   2      0.000000007914
   3     -0.000000025863
   4      0.000000000434
   5      0.000000108195
   6      0.001782168442
   7      0.000000003106
   8      0.000000050571
   9     -0.004152988977
  10      0.000000000567
  11     -0.000000016172
  12     -0.000301035569
  13      0.000000000494
  14     -0.000000001172
  15     -0.000304408676
  16      0.003000598794
  17     -0.000182460639
  18      0.000000010366
  19     -0.000303358090
  20      0.000304403124
  21     -0.003000584593
  22      0.000182460673
  23      0.000000005287
  24     -0.000303356948
  25      0.000000003139
  26     -0.000000018807
  27      0.000000049314
  28      0.000000005400
  29      0.000000372566
  30      0.000559640956
  31     -0.000000003631
  32     -0.000000868194
  33      0.000210131196
  34      0.000000000547
  35      0.000000063195
  36      0.000079370002
  37      0.000000003133
  38     -0.000000000626
  39     -0.000000056054
  40      0.000000606165
  41      0.000000037602
  42     -0.000000059970
  43      0.000036030928
  44      0.000000075742
  45     -0.000000647262
  46     -0.000000038151
  47     -0.000000063239
  48      0.000036030879
 Ene=   0.11731553724909E+01
 Spin= Alpha
 Occup=    0.000000
   1     -0.000000000678
   2      0.000000002485
   3     -0.000000007903
   4      0.000000001732
   5     -0.000000000546
   6      0.000000002977
   7      0.000000001648
   8      0.000000000535
   9     -0.000000012315
  10      0.000000000341
  11      0.000000000980
  12     -0.000000001236
  13     -0.000000002638
  14      0.342424266701
  15      0.000000000433
  16      0.000000008107
  17     -0.000000000572
  18      0.348788269685
  19     -0.000000001359
  20     -0.000000008083
  21     -0.000000000151
  22     -0.000000002277
  23     -0.348788268975
  24      0.000000000223
  25      0.000000000072
  26      0.000000000568
  27     -0.000000004993
  28      0.000000002488
  29      0.000000001240
  30      0.000000005886
  31      0.000000005478
  32     -0.000000002960
  33      0.000000003668
  34      0.000000000844
  35      0.000000000083
  36      0.000000003259
  37     -0.000000002533
  38      0.342424309651
  39      0.000000004662
  40      0.000000003943
  41      0.000000000178
  42     -0.000000002653
  43      0.348788324464
  44      0.000000006012
  45     -0.000000001291
  46     -0.000000001121
  47      0.000000001371
  48     -0.348788337564
 Ene=   0.12119983382201E+01
 Spin= Alpha
 Occup=    0.000000
   1     -0.000000000100
   2      0.000000000761
   3      0.000000000194
   4      0.000000000461
   5      0.000000000187
   6     -0.000008771571
   7     -0.000000001012
   8     -0.000000000985
   9     -0.000000692554
  10     -0.000000000652
  11      0.000000000884
  12     -0.000005433296
  13      0.000000000639
  14     -0.000000008773
  15      0.000010567979
  16     -0.000002307657
  17     -0.000022806981
  18     -0.000000011361
  19      0.000012499278
  20     -0.000010567836
  21      0.000002308261
  22      0.000022807056
  23      0.000000011599
  24      0.000012498959
  25     -0.000000000138
  26      0.000000000697
  27     -0.000000002221
  28      0.000000000198
  29     -0.000000001033
  30      0.000003563211
  31     -0.000000000972
  32      0.000000003262
  33     -0.000013896800
  34     -0.000000000351
  35     -0.000000000600
  36     -0.000029679762
  37     -0.000000000031
  38      0.000000008641
  39     -0.000000000368
  40     -0.000000001578
  41      0.000000000621
  42      0.000000000854
  43      0.000010083758
  44     -0.000000000448
  45      0.000000002730
  46      0.000000000536
  47      0.000000000985
  48      0.000010060373
 Ene=   0.12184684378122E+01
 Spin= Alpha
 Occup=    0.000000
   1     -0.000000006557
   2      0.000000029222
   3      0.000000069674
   4      0.000000012215
   5      0.000000000685
   6     -0.000000001416
   7      0.000000038317
   8     -0.000000000962
   9     -0.000000008981
  10     -0.000000003169
  11     -0.000000000989
  12      0.000000000881
  13     -0.000000037097
  14     -0.288721229843
  15     -0.000000051764
  16     -0.000000001616
  17     -0.000000009118
  18     -0.385942035001
  19      0.000000009492
  20     -0.000000058559
  21     -0.000000003424
  22     -0.000000015688
  23      0.385942035265
  24     -0.000000011674
  25     -0.000000009104
  26      0.000000043730
  27     -0.000000008881
  28     -0.000000005881
  29     -0.000000000701
  30      0.000000004365
  31     -0.000000064875
  32      0.000000001392
  33      0.000000007237
  34     -0.000000007053
  35      0.000000000147
  36      0.000000002974
  37      0.000000037331
  38      0.288721168771
  39     -0.000000053310
  40      0.000000005586
  41      0.000000016809
  42      0.000000005657
  43      0.385941975971
  44     -0.000000053839
  45      0.000000007632
  46      0.000000017373
  47     -0.000000005913
  48     -0.385941994296
 Ene=   0.12529925347378E+01
 Spin= Alpha
 Occup=    0.000000
   1     -0.000000000066
   2      0.000000000247
   3     -0.000000004765
   4     -0.000000000665
   5      0.000000000518
   6      0.000007459619
   7      0.000000004964
   8     -0.000000001452
   9      0.000066636258
  10      0.000000000236
  11      0.000000001072
  12      0.000007186641
  13     -0.000000000796
  14      0.000000000773
  15     -0.000032982193
  16     -0.000016227419
  17      0.000014388002
  18      0.000000001645
  19     -0.000011267804
  20      0.000032981418
  21      0.000016225922
  22     -0.000014388889
  23     -0.000000000148
  24     -0.000011268416
  25      0.000000000140
  26     -0.000000000818
  27      0.000000006161
  28     -0.000000000915
  29     -0.000000000692
  30      0.000000145823
  31      0.000000004571
  32      0.000000002243
  33     -0.000021659619
  34      0.000000000640
  35     -0.000000001165
  36     -0.000012486191
  37     -0.000000000240
  38      0.000000000761
  39     -0.000000000231
  40     -0.000000000646
  41      0.000000000347
  42     -0.000000000001
  43     -0.000000489407
  44      0.000000000742
  45      0.000000000987
  46     -0.000000001300
  47      0.000000000531
  48     -0.000000491236
 Ene=   0.14920978991623E+01
 Spin= Alpha
 Occup=    0.000000
   1      0.000000000193
   2     -0.000000000778
   3     -0.000000005377
   4      0.000000000050
   5     -0.000001788452
   6      0.004480418894
   7      0.000000000599
   8      0.000053832328
   9     -0.234120970261
  10     -0.000000000678
  11     -0.000055290851
  12     -0.049939652807
  13      0.000000000893
  14     -0.000000001866
  15      0.095941190660
  16      0.026248428912
  17      0.278499143783
  18     -0.000047802550
  19     -0.160096426328
  20     -0.095941188404
  21     -0.026248427646
  22     -0.278499144531
  23     -0.000047808063
  24     -0.160096424359
  25      0.000000000167
  26     -0.000000000833
  27      0.000000009023
  28     -0.000000000052
  29      0.000000749449
  30     -0.010664539160
  31      0.000000001178
  32     -0.000039255066
  33      0.321042804255
  34     -0.000000000002
  35      0.000008374048
  36      0.329731375756
  37     -0.000000000150
  38     -0.000000011723
  39      0.000016086986
  40      0.000004398741
  41     -0.000046702783
  42     -0.000026847970
  43     -0.285094342568
  44     -0.000016086976
  45     -0.000004404249
  46      0.000046698414
  47     -0.000026851331
  48     -0.285094330969
 Ene=   0.14921191978456E+01
 Spin= Alpha
 Occup=    0.000000
   1      0.000000000217
   2     -0.000000001565
   3     -0.000000005703
   4     -0.000000000264
   5     -0.000022240691
   6      0.004498665049
   7      0.000000004086
   8      0.000669624284
   9     -0.234087402894
  10     -0.000000001007
  11     -0.000687768999
  12     -0.049912767981
  13     -0.000000001179
  14     -0.000000001531
  15      0.095905722536
  16      0.026250685580
  17      0.278473487363
  18     -0.000594659907
  19     -0.160074755825
  20     -0.095905723288
  21     -0.026250684845
  22     -0.278473490895
  23     -0.000594665186
  24     -0.160074753376
  25      0.000000000093
  26     -0.000000000066
  27      0.000000009789
  28      0.000000000046
  29      0.000009381981
  30     -0.010662129450
  31      0.000000003193
  32     -0.000488298035
  33      0.321009928134
  34      0.000000000019
  35      0.000104116925
  36      0.329707231255
  37     -0.000000000782
  38     -0.000000002442
  39      0.000200058583
  40      0.000054752927
  41     -0.000580900344
  42     -0.000333916080
  43     -0.285073315788
  44     -0.000200057575
  45     -0.000054757310
  46      0.000580895576
  47     -0.000333919024
  48     -0.285073312495
 Ene=   0.15172384685729E+01
 Spin= Alpha
 Occup=    0.000000
   1     -0.000000000142
   2      0.000000000874
   3     -0.000000007889
   4     -0.000000000644
   5      0.000000000663
   6      0.000000000186
   7      0.000000007313
   8     -0.000000005849
   9      0.000000006901
  10     -0.000000001851
  11      0.000000005392
  12      0.000000005290
  13     -0.000000000587
  14     -0.000016012693
  15     -0.000000005415
  16      0.000000000810
  17     -0.000000027262
  18     -0.000017156682
  19      0.000000016572
  20      0.000000003266
  21     -0.000000000547
  22      0.000000022987
  23      0.000017167934
  24      0.000000015951
  25      0.000000000065
  26     -0.000000000393
  27      0.000000006053
  28      0.000000000364
  29     -0.000000000003
  30      0.000000000977
  31      0.000000005128
  32      0.000000002460
  33     -0.000000016759
  34      0.000000000039
  35     -0.000000000761
  36     -0.000000026666
  37     -0.000000000634
  38     -0.000016016964
  39     -0.000000000728
  40      0.000000001602
  41      0.000000006237
  42      0.000000001484
  43     -0.000017152536
  44      0.000000001795
  45      0.000000000560
  46     -0.000000004209
  47      0.000000003659
  48      0.000017183740
 Ene=   0.15172587498385E+01
 Spin= Alpha
 Occup=    0.000000
   1      0.000000000025
   2     -0.000000000403
   3     -0.000000005852
   4      0.000000000546
   5     -0.000000000955
   6      0.000000001306
   7      0.000000001789
   8      0.000000007294
   9      0.000000003392
  10     -0.000000000147
  11     -0.000000005925
  12      0.000000002863
  13     -0.000000000424
  14      0.000021179588
  15     -0.000000002827
  16      0.000000002070
  17     -0.000000025683
  18     -0.000002172717
  19      0.000000017253
  20      0.000000002359
  21     -0.000000000470
  22      0.000000024813
  23      0.000002162082
  24      0.000000018239
  25     -0.000000000048
  26      0.000000000264
  27      0.000000000604
  28     -0.000000000802
  29      0.000000001075
  30     -0.000000000222
  31      0.000000006040
  32     -0.000000006651
  33     -0.000000016513
  34     -0.000000000254
  35      0.000000001269
  36     -0.000000025393
  37     -0.000000001045
  38     -0.000021186478
  39      0.000000003097
  40      0.000000002530
  41     -0.000000005484
  42     -0.000000001769
  43      0.000002184211
  44     -0.000000001749
  45      0.000000001339
  46      0.000000002663
  47      0.000000000331
  48     -0.000002149004
 Ene=   0.16178255697053E+01
 Spin= Alpha
 Occup=    0.000000
   1      0.000000239330
   2     -0.000001648329
   3     -0.000001618860
   4      0.000001455956
   5      0.000000000726
   6      0.000000003893
   7     -0.000004380292
   8     -0.000000006471
   9     -0.000000028565
  10      0.000001883599
  11      0.000000002217
  12     -0.000000003297
  13      0.000000349375
  14      0.000000315344
  15      0.000001055216
  16      0.000000720702
  17      0.000002254640
  18      0.000014752138
  19     -0.000000745414
  20      0.000001037517
  21      0.000000703256
  22      0.000002273168
  23     -0.000014745592
  24      0.000000767347
  25      0.000000239635
  26     -0.000001650659
  27     -0.000001621221
  28     -0.000001455881
  29     -0.000000001869
  30      0.000000002564
  31      0.000004375032
  32      0.000000012801
  33      0.000000008844
  34      0.000001883333
  35     -0.000000001244
  36      0.000000001323
  37     -0.000000347193
  38     -0.000000318426
  39      0.000001041554
  40      0.000000707723
  41     -0.000002264382
  42     -0.000000760434
  43     -0.000014753611
  44      0.000001048991
  45      0.000000714977
  46     -0.000002259493
  47      0.000000752942
  48      0.000014744409
 Ene=   0.16293878452372E+01
 Spin= Alpha
 Occup=    0.000000
   1     -0.000000000177
   2      0.000000001415
   3     -0.000000000522
   4     -0.000000000726
   5      0.000000017360
   6      0.000566179679
   7     -0.000000001361
   8      0.000000193603
   9     -0.003735593420
  10     -0.000000000427
  11     -0.000000096000
  12     -0.000520342936
  13      0.000000001789
  14     -0.000000001666
  15      0.001184402057
  16      0.001030111225
  17     -0.000806019500
  18     -0.000000093056
  19      0.001323212081
  20     -0.001184399938
  21     -0.001030111305
  22      0.000806021955
  23     -0.000000096646
  24      0.001323211452
  25      0.000000000198
  26     -0.000000001185
  27      0.000000000422
  28     -0.000000000289
  29      0.000000077484
  30      0.000120587960
  31     -0.000000001210
  32     -0.000000509898
  33      0.001424383071
  34      0.000000000056
  35      0.000000071057
  36      0.000690773844
  37      0.000000001516
  38     -0.000000006716
  39      0.000000161292
  40      0.000000139732
  41      0.000000111378
  42      0.000000183439
  43     -0.000699279331
  44     -0.000000162034
  45     -0.000000140393
  46     -0.000000110066
  47      0.000000183456
  48     -0.000699277525
 Ene=   0.16339793568073E+01
 Spin= Alpha
 Occup=    0.000000
   1     -0.000000002533
   2      0.000000018476
   3      0.000000017334
   4     -0.000000004485
   5     -0.000001162996
   6      0.150348672470
   7     -0.000000027382
   8     -0.000020977298
   9     -1.047642475166
  10     -0.000000002124
  11      0.000010027774
  12     -0.153337552086
  13      0.000000014517
  14     -0.000000002637
  15      0.333584559795
  16      0.295687442203
  17     -0.218230196994
  18      0.000010336185
  19      0.342698004626
  20     -0.333584546722
  21     -0.295687433799
  22      0.218230210511
  23      0.000010335045
  24      0.342698001409
  25      0.000000001099
  26     -0.000000008636
  27     -0.000000018039
  28      0.000000002439
  29     -0.000007703411
  30      0.022740490304
  31     -0.000000044574
  32      0.000053671823
  33      0.409459363696
  34     -0.000000005492
  35     -0.000007856409
  36      0.195710543874
  37      0.000000013794
  38     -0.000000016102
  39     -0.000017100205
  40     -0.000015151576
  41     -0.000011161197
  42     -0.000017557138
  43     -0.201788041524
  44      0.000017081115
  45      0.000015142337
  46      0.000011196029
  47     -0.000017558239
  48     -0.201788037749
 Ene=   0.16339859913358E+01
 Spin= Alpha
 Occup=    0.000000
   1      0.000000001326
   2     -0.000000010319
   3     -0.000000012453
   4     -0.000000000408
   5      0.000005282502
   6      0.150567673793
   7      0.000000023893
   8      0.000095325114
   9     -1.049186796028
  10      0.000000000187
  11     -0.000045570594
  12     -0.153591500328
  13     -0.000000010339
  14     -0.000000000532
  15      0.334100705843
  16      0.296096163673
  17     -0.218534684864
  18     -0.000046967276
  19      0.343225521975
  20     -0.334100716786
  21     -0.296096166653
  22      0.218534664532
  23     -0.000046968141
  24      0.343225526585
  25     -0.000000001508
  26      0.000000010819
  27      0.000000006349
  28      0.000000000785
  29      0.000035000419
  30      0.022714610593
  31      0.000000024090
  32     -0.000243889273
  33      0.410074071305
  34      0.000000001222
  35      0.000035700671
  36      0.196050891440
  37     -0.000000008449
  38      0.000000008989
  39      0.000077667861
  40      0.000068834061
  41      0.000050793696
  42      0.000079786086
  43     -0.202034576061
  44     -0.000077658186
  45     -0.000068823861
  46     -0.000050809005
  47      0.000079786923
  48     -0.202034575977
 Ene=   0.16492482119300E+01
 Spin= Alpha
 Occup=    0.000000
   1     -0.000000001379
   2      0.000000008260
   3      0.000000022958
   4     -0.000000005653
   5     -0.000000000641
   6      0.000000011623
   7     -0.000000005238
   8     -0.000000004640
   9     -0.000000069745
  10     -0.000000002453
  11      0.000000003059
  12     -0.000000013273
  13      0.000000001154
  14      0.000003754426
  15      0.000000021842
  16      0.000000017601
  17     -0.000000012124
  18     -0.000019863238
  19      0.000000024603
  20     -0.000000024572
  21     -0.000000018747
  22      0.000000006936
  23      0.000019867061
  24      0.000000021637
  25     -0.000000000430
  26      0.000000003668
  27     -0.000000011889
  28      0.000000001971
  29     -0.000000001662
  30      0.000000002110
  31     -0.000000031395
  32      0.000000015547
  33      0.000000026322
  34     -0.000000008408
  35     -0.000000002307
  36      0.000000019668
  37      0.000000004444
  38     -0.000003742775
  39     -0.000000010867
  40     -0.000000009707
  41      0.000000004911
  42     -0.000000000340
  43      0.000019856064
  44     -0.000000000979
  45      0.000000000517
  46      0.000000013342
  47     -0.000000008866
  48     -0.000019880639
 Ene=   0.16492576517181E+01
 Spin= Alpha
 Occup=    0.000000
   1     -0.000000006773
   2      0.000000047639
   3      0.000000091509
   4     -0.000000007260
   5      0.000000000461
   6      0.000000010949
   7     -0.000000128910
   8      0.000000005762
   9     -0.000000072949
  10      0.000000004036
  11     -0.000000002611
  12     -0.000000010788
  13      0.000000041463
  14      0.000008457768
  15      0.000000045596
  16      0.000000034994
  17      0.000000025115
  18      0.000002674677
  19      0.000000025606
  20     -0.000000000888
  21     -0.000000005072
  22      0.000000050286
  23     -0.000002681290
  24      0.000000022548
  25      0.000000005484
  26     -0.000000039009
  27     -0.000000081366
  28     -0.000000000975
  29      0.000000002003
  30      0.000000003793
  31     -0.000000150340
  32     -0.000000014442
  33      0.000000028446
  34     -0.000000012128
  35      0.000000002043
  36      0.000000017395
  37      0.000000044598
  38      0.000008462402
  39     -0.000000023930
  40     -0.000000014926
  41      0.000000050351
  42      0.000000006978
  43      0.000002645434
  44     -0.000000032513
  45     -0.000000024062
  46      0.000000044432
  47      0.000000000640
  48     -0.000002677161
 Ene=   0.16539060311833E+01
 Spin= Alpha
 Occup=    0.000000
   1      0.000027040779
   2     -0.000196006170
   3     -0.000297804253
   4      0.000015667320
   5     -0.000000002186
   6      0.000000018833
   7      0.000545277090
   8     -0.000000021319
   9     -0.000000126886
  10     -0.000021219673
  11      0.000000010756
  12     -0.000000022605
  13     -0.000187652333
  14      0.000036869117
  15     -0.000107889491
  16     -0.000067475113
  17     -0.000182954899
  18     -0.000052527011
  19     -0.000005880536
  20     -0.000107971912
  21     -0.000067547890
  22     -0.000182915099
  23      0.000052548704
  24      0.000005951697
  25     -0.000027041664
  26      0.000196012271
  27      0.000297802567
  28      0.000015667621
  29     -0.000000007502
  30      0.000000001227
  31      0.000545273495
  32      0.000000060617
  33      0.000000048865
  34      0.000021216610
  35     -0.000000009048
  36      0.000000033337
  37     -0.000187655963
  38      0.000036874106
  39      0.000107911008
  40      0.000067492442
  41     -0.000182948100
  42      0.000005900037
  43     -0.000052557034
  44      0.000107949721
  45      0.000067529477
  46     -0.000182919363
  47     -0.000005937355
  48      0.000052513749
 Ene=   0.16910385264438E+01
 Spin= Alpha
 Occup=    0.000000
   1     -0.000000000103
   2      0.000000000962
   3      0.000000002037
   4      0.000000000678
   5      0.000000000167
   6     -0.000019165799
   7     -0.000000001782
   8      0.000000002722
   9      0.000083900555
  10     -0.000000000213
  11      0.000000002939
  12      0.000021103439
  13      0.000000001564
  14     -0.000000001072
  15     -0.000018356466
  16     -0.000040129377
  17     -0.000004763663
  18     -0.000000000786
  19      0.000004551460
  20      0.000018357088
  21      0.000040129120
  22      0.000004764621
  23     -0.000000004665
  24      0.000004550340
  25     -0.000000000265
  26      0.000000001785
  27     -0.000000002260
  28      0.000000000383
  29     -0.000000000862
  30     -0.000007701090
  31     -0.000000002344
  32     -0.000000004544
  33     -0.000004479148
  34     -0.000000001301
  35     -0.000000000150
  36     -0.000070582277
  37     -0.000000000625
  38     -0.000000006677
  39      0.000000001981
  40     -0.000000000014
  41      0.000000003338
  42      0.000000004685
  43     -0.000021855909
  44     -0.000000002867
  45     -0.000000000948
  46     -0.000000004374
  47      0.000000002774
  48     -0.000021854309
 Ene=   0.18378748198935E+01
 Spin= Alpha
 Occup=    0.000000
   1      0.000000000728
   2     -0.000000004724
   3     -0.000000011063
   4      0.000000000902
   5     -0.000233955571
   6     -0.157815661398
   7      0.000000013672
   8     -0.000272764936
   9     -0.091483542759
  10      0.000000002274
  11     -0.000445350460
  12      0.268077660688
  13     -0.000000004601
  14     -0.000000002900
  15     -0.063465986822
  16      0.151907037234
  17     -0.229826924214
  18      0.000622299340
  19     -0.109173877403
  20      0.063465982696
  21     -0.151907040151
  22      0.229826915767
  23      0.000622293801
  24     -0.109173877320
  25      0.000000000550
  26     -0.000000005145
  27      0.000000011570
  28      0.000000002404
  29      0.000243321892
  30      0.151735656317
  31      0.000000014578
  32      0.000141035189
  33      0.176910793362
  34      0.000000004931
  35      0.000413338260
  36     -0.288840268056
  37      0.000000001762
  38     -0.000000009270
  39      0.000097862479
  40     -0.000234200627
  41     -0.000354347957
  42      0.000168314181
  43     -0.403603626223
  44     -0.000097859161
  45      0.000234208884
  46      0.000354349865
  47      0.000168326176
  48     -0.403603626769
 Ene=   0.18378834126474E+01
 Spin= Alpha
 Occup=    0.000000
   1      0.000000001698
   2     -0.000000012603
   3     -0.000000000200
   4     -0.000000001538
   5      0.000026527492
   6     -0.157870737467
   7      0.000000011248
   8      0.000030946897
   9     -0.091567770571
  10      0.000000007136
  11      0.000050515530
  12      0.268059178153
  13     -0.000000012414
  14     -0.000000000971
  15     -0.063446511980
  16      0.152002804187
  17     -0.229881895141
  18     -0.000070580028
  19     -0.109295583236
  20      0.063446505056
  21     -0.152002806740
  22      0.229881881834
  23     -0.000070583004
  24     -0.109295574818
  25      0.000000001790
  26     -0.000000014287
  27      0.000000011894
  28      0.000000003560
  29     -0.000027614678
  30      0.151687714799
  31      0.000000008456
  32     -0.000016023570
  33      0.176927121934
  34      0.000000009271