[Molden Format]
[Title]
generated by TRESC, imaginary part2 of MOs of job twisted_C2H4
 
[Atoms] AU
 C   1   6    0.0000000000    0.0000000000    1.3668709329
 H   2   1    0.0000000000    1.7631351343    2.4609882652
 H   3   1    0.0000000000   -1.7631351343    2.4609882652
 C   4   6    0.0000000000    0.0000000000   -1.3668709329
 H   5   1    1.7631351343    0.0000000000   -2.4609882652
 H   6   1   -1.7631351343    0.0000000000   -2.4609882652
[GTO]
  1 0
 s  5 1.0
     1238.4016938000        0.0059599745
      186.2900499200        0.0422621111
       42.2511763500        0.1866575214
       11.6765579300        0.4675815865
        3.5930506500        0.4422897287
 s  1 1.0
        0.4024514700        1.0000000000
 s  1 1.0
        0.1309018300        1.0000000000
 p  3 1.0
        9.4680970600        0.0570294585
        2.0103545100        0.3130471495
        0.5477100500        0.7605135301
 p  1 1.0
        0.1526861400        1.0000000000
 d  1 1.0
        0.8000000000        1.0000000000
 
  2 0
 s  3 1.0
       13.0107010000        0.0391282527
        1.9622572000        0.2855840539
        0.4445379600        0.7689908602
 s  1 1.0
        0.1219496200        1.0000000000
 p  1 1.0
        0.8000000000        1.0000000000
 
  3 0
 s  3 1.0
       13.0107010000        0.0391282527
        1.9622572000        0.2855840539
        0.4445379600        0.7689908602
 s  1 1.0
        0.1219496200        1.0000000000
 p  1 1.0
        0.8000000000        1.0000000000
 
  4 0
 s  5 1.0
     1238.4016938000        0.0059599745
      186.2900499200        0.0422621111
       42.2511763500        0.1866575214
       11.6765579300        0.4675815865
        3.5930506500        0.4422897287
 s  1 1.0
        0.4024514700        1.0000000000
 s  1 1.0
        0.1309018300        1.0000000000
 p  3 1.0
        9.4680970600        0.0570294585
        2.0103545100        0.3130471495
        0.5477100500        0.7605135301
 p  1 1.0
        0.1526861400        1.0000000000
 d  1 1.0
        0.8000000000        1.0000000000
 
  5 0
 s  3 1.0
       13.0107010000        0.0391282527
        1.9622572000        0.2855840539
        0.4445379600        0.7689908602
 s  1 1.0
        0.1219496200        1.0000000000
 p  1 1.0
        0.8000000000        1.0000000000
 
  6 0
 s  3 1.0
       13.0107010000        0.0391282527
        1.9622572000        0.2855840539
        0.4445379600        0.7689908602
 s  1 1.0
        0.1219496200        1.0000000000
 p  1 1.0
        0.8000000000        1.0000000000
 
[5D]
[7F]
[9G]
[MO]
 Ene=   0.71642296556074E+00
 Spin= Alpha
 Occup=    0.000000
   1      0.000251868679
   2     -0.002158073966
   3      0.017027654565
   4      0.003384989168
   5      0.000000000932
   6      0.000000015006
   7     -0.012402099953
   8      0.000000006650
   9     -0.000000027789
  10      0.000361269388
  11      0.000000003786
  12     -0.000000001443
  13      0.000431380939
  14      0.000000000188
  15     -0.001597155732
  16      0.002116804626
  17      0.000048546537
  18      0.000000001095
  19     -0.000329173731
  20     -0.001597138282
  21      0.002116754944
  22      0.000048552363
  23      0.000000000695
  24      0.000329170057
  25     -0.000252290056
  26      0.002160553711
  27     -0.017034153083
  28      0.003383661246
  29      0.000000010245
  30     -0.000000006822
  31     -0.012399561920
  32     -0.000000027640
  33      0.000000008536
  34     -0.000361313057
  35     -0.000000003114
  36      0.000000000758
  37      0.000431118356
  38     -0.000000002798
  39      0.001596398982
  40     -0.002113548708
  41      0.000048680412
  42      0.000328851253
  43     -0.000000002403
  44      0.001596382495
  45     -0.002113559225
  46      0.000048680030
  47     -0.000328844551
  48      0.000000001426
 Ene=   0.71642728213389E+00
 Spin= Alpha
 Occup=    0.000000
   1     -0.000365389893
   2      0.002148805933
   3     -0.005603351579
   4      0.001140246784
   5     -0.000000002842
   6      0.000000016144
   7     -0.002168652858
   8      0.000000004065
   9     -0.000000025592
  10     -0.000037674373
  11      0.000000001347
  12     -0.000000002927
  13      0.000224559214
  14      0.000000000076
  15     -0.000654926265
  16      0.002774269385
  17     -0.000112262023
  18      0.000000000864
  19     -0.000276756594
  20     -0.000654900201
  21      0.002774210348
  22     -0.000112257060
  23      0.000000001541
  24      0.000276752069
  25     -0.000365113111
  26      0.002146447123
  27     -0.005584791091
  28     -0.001143932608
  29     -0.000000012914
  30     -0.000000002697
  31      0.002182182785
  32      0.000000019179
  33      0.000000002331
  34     -0.000037281950
  35     -0.000000006871
  36      0.000000001791
  37     -0.000225030348
  38     -0.000000002406
  39     -0.000656627340
  40      0.002776515830
  41      0.000112204164
  42     -0.000277108258
  43     -0.000000002660
  44     -0.000656659505
  45      0.002776579690
  46      0.000112208409
  47      0.000277121068
  48      0.000000001234
 Ene=   0.75464731150787E+00
 Spin= Alpha
 Occup=    0.000000
   1      0.057694214052
   2     -0.440960556003
   3      3.428260524467
   4      0.752477993654
   5      0.000000021736
   6      0.000000018085
   7     -2.605744964616
   8     -0.000000023470
   9     -0.000000035750
  10      0.095818300276
  11      0.000000001464
  12     -0.000000001984
  13      0.084565793860
  14      0.000000002242
  15     -0.277395120809
  16      0.435091316329
  17      0.010400504998
  18      0.000000003017
  19     -0.076440478076
  20     -0.277395101967
  21      0.435091257387
  22      0.010400512627
  23      0.000000001594
  24      0.076440472565
  25     -0.057694219128
  26      0.440960589826
  27     -3.428260620963
  28      0.752477966751
  29     -0.000000026126
  30     -0.000000013336
  31     -2.605744915600
  32      0.000000044062
  33      0.000000017794
  34     -0.095818309805
  35     -0.000000002777
  36      0.000000001069
  37      0.084565783868
  38     -0.000000000187
  39      0.277395117067
  40     -0.435091274712
  41      0.010400510278
  42      0.076440473267
  43     -0.000000002504
  44      0.277395091658
  45     -0.435091207108
  46      0.010400517033
  47     -0.076440475138
  48      0.000000000870
 Ene=   0.77222203801599E+00
 Spin= Alpha
 Occup=    0.000000
   1      0.000000000686
   2     -0.000000001156
   3      0.000000016738
   4      0.000000007312
   5      0.000559611565
   6     -0.000000333752
   7     -0.000000032319
   8      0.000210191236
   9      0.000000757123
  10      0.000000001171
  11     -0.000079366038
  12      0.000000061686
  13      0.000000003305
  14     -0.000000001431
  15      0.000000083128
  16     -0.000000564425
  17      0.000000036661
  18      0.000036030953
  19      0.000000057746
  20     -0.000000060684
  21      0.000000572632
  22     -0.000000036191
  23      0.000036030992
  24      0.000000056076
  25     -0.000000003728
  26      0.000000016762
  27     -0.000000031419
  28     -0.000000000109
  29      0.001782221213
  30     -0.000000107670
  31     -0.000000026907
  32     -0.004153147013
  33     -0.000000024467
  34     -0.000000001681
  35      0.000301041638
  36     -0.000000018278
  37     -0.000000000278
  38      0.000000000101
  39     -0.000304412329
  40      0.003000687536
  41      0.000182468091
  42     -0.000303369028
  43     -0.000000005566
  44      0.000304399972
  45     -0.003000693776
  46     -0.000182467912
  47     -0.000303378454
  48     -0.000000006649
 Ene=   0.11731553724909E+01
 Spin= Alpha
 Occup=    0.000000
   1      0.000002016069
   2      0.000002920405
   3     -0.000023230603
   4     -0.000021265766
   5      0.000000002389
   6     -0.000000000059
   7     -0.000028311225
   8     -0.000000004354
   9     -0.000000002235
  10      0.000000166874
  11      0.000000000299
  12     -0.000000000240
  13      0.000029495022
  14      0.000027391969
  15      0.000042359819
  16     -0.000003285205
  17      0.000010970391
  18      0.000027900674
  19     -0.000002291052
  20      0.000042357082
  21     -0.000003285144
  22      0.000010970804
  23     -0.000027900748
  24      0.000002291115
  25     -0.000002018301
  26     -0.000002909336
  27      0.000023232131
  28     -0.000021269486
  29     -0.000000006673
  30     -0.000000000790
  31     -0.000028317785
  32      0.000000013045
  33      0.000000002222
  34     -0.000000166888
  35     -0.000000001562
  36      0.000000000235
  37      0.000029493212
  38      0.000027389288
  39     -0.000042367559
  40      0.000003282335
  41      0.000010967668
  42      0.000002285772
  43      0.000027896514
  44     -0.000042363960
  45      0.000003287788
  46      0.000010975319
  47     -0.000002304708
  48     -0.000027898039
 Ene=   0.12119983382201E+01
 Spin= Alpha
 Occup=    0.000000
   1      0.000000000579
   2     -0.000000002939
   3     -0.000000008128
   4      0.000000002631
   5      0.000003563715
   6      0.000000000145
   7      0.000000002969
   8     -0.000013893353
   9      0.000000000434
  10      0.000000001326
  11      0.000029679930
  12     -0.000000000169
  13     -0.000000000650
  14      0.000000003325
  15     -0.000000000270
  16      0.000000000371
  17      0.000000000274
  18      0.000010078836
  19     -0.000000000629
  20      0.000000000327
  21     -0.000000000112
  22     -0.000000000163
  23      0.000010068829
  24      0.000000000169
  25     -0.000000000165
  26      0.000000000077
  27      0.000000007457
  28      0.000000001500
  29     -0.000008771779
  30      0.000000000988
  31      0.000000009112
  32     -0.000000707716
  33     -0.000000001296
  34      0.000000000247
  35      0.000005432531
  36      0.000000000285
  37     -0.000000001293
  38     -0.000000003508
  39      0.000010575273
  40     -0.000002303298
  41      0.000022806692
  42      0.000012501231
  43     -0.000000004421
  44     -0.000010574227
  45      0.000002304671
  46     -0.000022815169
  47      0.000012502829
  48      0.000000005002
 Ene=   0.12184684378122E+01
 Spin= Alpha
 Occup=    0.000000
   1     -0.000005281960
   2      0.000025353773
   3      0.000009665438
   4      0.000005803412
   5     -0.000000002659
   6     -0.000000000516
   7      0.000028397905
   8      0.000000000250
   9      0.000000003226
  10     -0.000002188207
  11      0.000000000277
  12      0.000000000615
  13     -0.000021399838
  14      0.000487114469
  15     -0.000032276317
  16      0.000004637066
  17     -0.000009019371
  18      0.000651139016
  19      0.000003980537
  20     -0.000032274136
  21      0.000004638866
  22     -0.000009019649
  23     -0.000651140390
  24     -0.000003980512
  25     -0.000005283496
  26      0.000025363796
  27      0.000009638223
  28     -0.000005806453
  29     -0.000000005480
  30     -0.000000000304
  31     -0.000028407718
  32      0.000000012459
  33     -0.000000001329
  34     -0.000002188521
  35     -0.000000003269
  36     -0.000000000624
  37      0.000021391954
  38     -0.000487117921
  39     -0.000032277373
  40      0.000004634659
  41      0.000009014807
  42      0.000003977722
  43     -0.000651141632
  44     -0.000032275044
  45      0.000004645688
  46      0.000009023092
  47     -0.000003990459
  48      0.000651143311
 Ene=   0.12529925347378E+01
 Spin= Alpha
 Occup=    0.000000
   1      0.000000000524
   2     -0.000000002597
   3     -0.000000021970
   4      0.000000001218
   5     -0.000000143992
   6     -0.000000000610
   7      0.000000014160
   8      0.000021658297
   9      0.000000003735
  10     -0.000000000321
  11     -0.000012480689
  12      0.000000000597
  13     -0.000000001561
  14     -0.000000000062
  15     -0.000000001172
  16     -0.000000002663
  17      0.000000000085
  18      0.000000492470
  19     -0.000000000075
  20      0.000000001096
  21     -0.000000000250
  22     -0.000000000105
  23      0.000000493941
  24     -0.000000000323
  25     -0.000000000155
  26     -0.000000000508
  27      0.000000019535
  28     -0.000000000775
  29     -0.000007461059
  30      0.000000000026
  31      0.000000023069
  32     -0.000066643498
  33     -0.000000001650
  34      0.000000001376
  35      0.000007183040
  36     -0.000000000746
  37     -0.000000002660
  38     -0.000000000351
  39      0.000032986164
  40      0.000016232108
  41      0.000014390742
  42      0.000011270870
  43      0.000000000228
  44     -0.000032984611
  45     -0.000016225592
  46     -0.000014402255
  47      0.000011275127
  48      0.000000000895
 Ene=   0.14920978991623E+01
 Spin= Alpha
 Occup=    0.000000
   1      0.000000000154
   2     -0.000000002823
   3      0.000000015079
   4     -0.000000002780
   5     -0.010663621588
   6     -0.000000762272
   7      0.000000002639
   8      0.321014902687
   9      0.000039774004
  10     -0.000000000089
  11     -0.329702741917
  12      0.000008485133
  13     -0.000000004450
  14      0.000000000125
  15     -0.000016302941
  16     -0.000004459959
  17     -0.000047320796
  18     -0.285069562789
  19      0.000027197185
  20      0.000016295130
  21      0.000004457948
  22      0.000047310677
  23     -0.285069565398
  24      0.000027199358
  25     -0.000000002368
  26      0.000000016116
  27     -0.000000019105
  28     -0.000000003380
  29      0.004480012703
  30      0.000001810420
  31     -0.000000005513
  32     -0.234100567247
  33     -0.000054540184
  34     -0.000000002267
  35      0.049935313093
  36     -0.000056019276
  37     -0.000000006651
  38      0.000000000048
  39      0.095932840015
  40      0.026246127790
  41     -0.278474984790
  42     -0.160082550255
  43      0.000048434350
  44     -0.095932846149
  45     -0.026246121383
  46      0.278474984011
  47     -0.160082559741
  48      0.000048434304
 Ene=   0.14921191978456E+01
 Spin= Alpha
 Occup=    0.000000
   1     -0.000000000061
   2     -0.000000000365
   3      0.000000003693
   4      0.000000000206
   5      0.010663056171
   6      0.000009373646
   7      0.000000008057
   8     -0.321037800375
   9     -0.000487748292
  10     -0.000000002172
  11      0.329735859605
  12     -0.000103999692
  13     -0.000000003793
  14     -0.000000000323
  15      0.000199828408
  16      0.000054692856
  17      0.000580235392
  18      0.285098062223
  19     -0.000333535322
  20     -0.000199833818
  21     -0.000054698063
  22     -0.000580238631
  23      0.285098061927
  24     -0.000333538026
  25     -0.000000000380
  26      0.000000001860
  27      0.000000011014
  28     -0.000000000519
  29     -0.004499057359
  30     -0.000022215284
  31     -0.000000002110
  32      0.234107738050
  33      0.000668863920
  34     -0.000000000268
  35     -0.049917106035
  36      0.000686988343
  37     -0.000000003212
  38     -0.000000000235
  39     -0.095914053624
  40     -0.026252972536
  41      0.278497663032
  42      0.160088652305
  43     -0.000593986452
  44      0.095914053185
  45      0.026252963946
  46     -0.278497663699
  47      0.160088646350
  48     -0.000593986201
 Ene=   0.15172384685729E+01
 Spin= Alpha
 Occup=    0.000000
   1      0.000011645928
   2     -0.000059633125
   3     -0.000114367260
   4      0.000017198798
   5      0.000000000111
   6     -0.000000000001
   7      0.000127784481
   8      0.000000024615
   9      0.000000007311
  10     -0.000021437440
  11     -0.000000023845
  12      0.000000001108
  13     -0.000017553134
  14      0.000000000006
  15     -0.000004115088
  16     -0.000012989214
  17     -0.000037102887
  18     -0.000000023698
  19     -0.000003223580
  20     -0.000004110411
  21     -0.000012984566
  22     -0.000037095418
  23     -0.000000023541
  24      0.000003229612
  25     -0.000011643226
  26      0.000059613013
  27      0.000114347199
  28      0.000017175505
  29     -0.000000005657
  30     -0.000000000626
  31      0.000127845429
  32     -0.000000011973
  33     -0.000000005956
  34      0.000021465455
  35     -0.000000000790
  36     -0.000000005918
  37     -0.000017557694
  38      0.000000000799
  39      0.000004131637
  40      0.000012995628
  41     -0.000037153154
  42      0.000003204200
  43      0.000000005669
  44      0.000004116047
  45      0.000012997166
  46     -0.000037112151
  47     -0.000003232451
  48      0.000000005188
 Ene=   0.15172587498385E+01
 Spin= Alpha
 Occup=    0.000000
   1     -0.000011413410
   2      0.000080979536
   3      0.000023368998
   4     -0.000038886179
   5     -0.000000000342
   6      0.000000000528
   7      0.000119948462
   8     -0.000000032994
   9      0.000000001768
  10     -0.000070448572
  11      0.000000027889
  12      0.000000000126
  13      0.000020190852
  14     -0.000000000008
  15     -0.000022655106
  16     -0.000020892993
  17     -0.000047811557
  18      0.000000022001
  19      0.000033570587
  20     -0.000022653563
  21     -0.000020893185
  22     -0.000047800879
  23      0.000000023237
  24     -0.000033564116
  25     -0.000011414241
  26      0.000080988312
  27      0.000023322817
  28      0.000038880575
  29     -0.000000007217
  30      0.000000000289
  31     -0.000119980884
  32      0.000000052936
  33     -0.000000004825
  34     -0.000070454866
  35     -0.000000007842
  36     -0.000000005880
  37     -0.000020193693
  38      0.000000000961
  39     -0.000022672900
  40     -0.000020910892
  41      0.000047816428
  42      0.000033574657
  43      0.000000005069
  44     -0.000022640561
  45     -0.000020881654
  46      0.000047795760
  47     -0.000033573503
  48      0.000000004168
 Ene=   0.16178255697053E+01
 Spin= Alpha
 Occup=    0.000000
   1     -0.040872306915
   2      0.281519296513
   3      0.276583428457
   4     -0.248540544495
   5      0.000000000111
   6     -0.000000000705
   7      0.747284777923
   8      0.000000057212
   9      0.000000016543
  10     -0.321505571791
  11     -0.000000025669
  12      0.000000003268
  13     -0.059487880827
  14      0.000000000449
  15     -0.178542947198
  16     -0.121477548731
  17     -0.386292389319
  18     -0.000000026097
  19      0.129121689725
  20     -0.178542935953
  21     -0.121477537145
  22     -0.386292398919
  23     -0.000000027693
  24     -0.129121695842
  25     -0.040872317272
  26      0.281519381982
  27      0.276583689230
  28      0.248540539382
  29      0.000000018049
  30     -0.000000000926
  31     -0.747284452698
  32     -0.000000145722
  33     -0.000000005690
  34     -0.321505553723
  35      0.000000020292
  36     -0.000000002675
  37      0.059487779349
  38     -0.000000000531
  39     -0.178542837108
  40     -0.121477479423
  41      0.386292321486
  42      0.129121752045
  43      0.000000002355
  44     -0.178542932194
  45     -0.121477562443
  46      0.386292257931
  47     -0.129121662931
  48      0.000000002930
 Ene=   0.16293878452372E+01
 Spin= Alpha
 Occup=    0.000000
   1      0.000000001853
   2     -0.000000013387
   3     -0.000000008709
   4      0.000000002251
   5     -0.000120589684
   6      0.000000095677
   7      0.000000025139
   8     -0.001424494799
   9     -0.000000636042
  10      0.000000001188
  11      0.000690843660
  12     -0.000000087812
  13     -0.000000010670
  14     -0.000000001109
  15      0.000000195266
  16      0.000000171769
  17     -0.000000147664
  18      0.000699337776
  19      0.000000224426
  20     -0.000000207417
  21     -0.000000180276
  22      0.000000130148
  23      0.000699337459
  24      0.000000225128
  25     -0.000000002927
  26      0.000000020181
  27      0.000000009879
  28     -0.000000004560
  29     -0.000566223670
  30      0.000000021004
  31      0.000000029869
  32      0.003735848111
  33      0.000000242607
  34      0.000000002179
  35     -0.000520382483
  36      0.000000115512
  37     -0.000000015146
  38     -0.000000000414
  39     -0.001184474954
  40     -0.001030176463
  41     -0.000806068182
  42     -0.001323283789
  43     -0.000000119602
  44      0.001184486284
  45      0.001030179970
  46      0.000806037180
  47     -0.001323295947
  48     -0.000000119712
 Ene=   0.16339793568073E+01
 Spin= Alpha
 Occup=    0.000000
   1      0.000000002915
   2     -0.000000024181
   3     -0.000000074747
   4     -0.000000013569
   5     -0.022774331423
   6      0.000004409404
   7      0.000000163187
   8     -0.410070693018
   9     -0.000030728326
  10     -0.000000021950
  11      0.196002848480
  12     -0.000004497080
  13     -0.000000044563
  14     -0.000000001767
  15      0.000009751743
  16      0.000008659458
  17     -0.000006470471
  18      0.202089218308
  19      0.000010051617
  20     -0.000009817142
  21     -0.000008686176
  22      0.000006335958
  23      0.202089215274
  24      0.000010053124
  25     -0.000000011342
  26      0.000000081482
  27      0.000000079409
  28      0.000000005615
  29     -0.150573148457
  30      0.000000665628
  31      0.000000084913
  32      1.049206531991
  33      0.000012009479
  34     -0.000000010362
  35     -0.153566527787
  36      0.000005738397
  37     -0.000000048063
  38     -0.000000000907
  39     -0.334082600041
  40     -0.296128812439
  41     -0.218555966359
  42     -0.343209646091
  43     -0.000005916263
  44      0.334082619543
  45      0.296128829431
  46      0.218555913443
  47     -0.343209689279
  48     -0.000005916805
 Ene=   0.16339859913358E+01
 Spin= Alpha
 Occup=    0.000000
   1      0.000000004494
   2     -0.000000031356
   3      0.000000020950
   4      0.000000023453
   5      0.022680661974
   6     -0.000022934432
   7     -0.000000068024
   8      0.409462750461
   9      0.000159812086
  10      0.000000027744
  11     -0.195758689298
  12      0.000023393730
  13     -0.000000002000
  14      0.000000002172
  15     -0.000050880423
  16     -0.000045099357
  17      0.000033325808
  18     -0.201733310058
  19     -0.000052288051
  20      0.000050900298
  21      0.000045101046
  22     -0.000033251469
  23     -0.201733309760
  24     -0.000052275606
  25      0.000000005492
  26     -0.000000038413
  27     -0.000000038313
  28     -0.000000012903
  29      0.150343216205
  30     -0.000003457574
  31      0.000000050746
  32     -1.047622671356
  33     -0.000062464016
  34      0.000000023881
  35      0.153362565705
  36     -0.000029860456
  37     -0.000000001651
  38      0.000000000333
  39      0.333602685849
  40      0.295654712629
  41      0.218208830571
  42      0.342713870248
  43      0.000030773314
  44     -0.333602648448
  45     -0.295654691237
  46     -0.218208882434
  47      0.342713910335
  48      0.000030773497
 Ene=   0.16492482119300E+01
 Spin= Alpha
 Occup=    0.000000
   1      0.000027205392
   2     -0.000183197622
   3     -0.000176788078
   4      0.000139826335
   5      0.000000000455
   6      0.000000000822
   7     -0.000442812388
   8      0.000000031649
   9     -0.000000012753
  10      0.000193322801
  11     -0.000000014257
  12     -0.000000000287
  13      0.000050220909
  14      0.000000000298
  15      0.000118437641
  16      0.000078168265
  17      0.000211574867
  18     -0.000000010420
  19     -0.000085448499
  20      0.000118430541
  21      0.000078159642
  22      0.000211580576
  23     -0.000000007992
  24      0.000085454737
  25      0.000027258612
  26     -0.000183601960
  27     -0.000177082763
  28     -0.000139838342
  29      0.000000017112
  30      0.000000001376
  31      0.000441981422
  32     -0.000000101582
  33      0.000000005822
  34      0.000193355182
  35      0.000000020852
  36      0.000000002484
  37     -0.000049860211
  38      0.000000000563
  39      0.000118271640
  40      0.000078089081
  41     -0.000211196906
  42     -0.000085460491
  43     -0.000000003037
  44      0.000118208411
  45      0.000078026714
  46     -0.000211250506
  47      0.000085532194
  48     -0.000000005861
 Ene=   0.16492576517181E+01
 Spin= Alpha
 Occup=    0.000000
   1      0.000011546084
   2     -0.000061889602
   3     -0.000396592697
   4      0.000028996090
   5     -0.000000002928
   6      0.000000001738
   7      0.000439532186
   8     -0.000000032617
   9     -0.000000015155
  10     -0.000073249340
  11      0.000000013789
  12     -0.000000001017
  13     -0.000077283351
  14      0.000000000529
  15     -0.000055956974
  16     -0.000050896518
  17     -0.000080520277
  18      0.000000018337
  19      0.000028807940
  20     -0.000055965302
  21     -0.000050906662
  22     -0.000080512749
  23      0.000000019790
  24     -0.000028799297
  25     -0.000011569647
  26      0.000062048050
  27      0.000396756634
  28      0.000029126103
  29     -0.000000010964
  30      0.000000000126
  31      0.000439123322
  32      0.000000076843
  33      0.000000006630
  34      0.000073076603
  35     -0.000000009698
  36      0.000000002340
  37     -0.000077232784
  38     -0.000000000036
  39      0.000055826862
  40      0.000050812871
  41     -0.000080328878
  42     -0.000028758404
  43     -0.000000003343
  44      0.000055877370
  45      0.000050851553
  46     -0.000080296754
  47      0.000028700176
  48     -0.000000004648
 Ene=   0.16539060311833E+01
 Spin= Alpha
 Occup=    0.000000
   1     -0.057061542331
   2      0.413612422808
   3      0.628420021390
   4     -0.033062790860
   5     -0.000000004057
   6     -0.000000003390
   7     -1.150629814335
   8     -0.000000053380
   9      0.000000005904
  10      0.044773803825
  11      0.000000023704
  12      0.000000002525
  13      0.395983531811
  14      0.000000015448
  15      0.227753153625
  16      0.142461503223
  17      0.386023444948
  18      0.000000003577
  19      0.012485010719
  20      0.227753155918
  21      0.142461506450
  22      0.386023440829
  23      0.000000046323
  24     -0.012485021976
  25      0.057061534966
  26     -0.413612382279
  27     -0.628419983997
  28     -0.033062712038
  29     -0.000000011570
  30      0.000000001558
  31     -1.150630002492
  32      0.000000135314
  33     -0.000000001409
  34     -0.044773853965
  35     -0.000000021057
  36     -0.000000001307
  37      0.395983579669
  38      0.000000014462
  39     -0.227753249543
  40     -0.142461545574
  41      0.386023541381
  42     -0.012485060960
  43     -0.000000026656
  44     -0.227753155692
  45     -0.142461469580
  46      0.386023605455
  47      0.012484977332
  48      0.000000022941
 Ene=   0.16910385264438E+01
 Spin= Alpha
 Occup=    0.000000
   1      0.000000000185
   2     -0.000000001701
   3      0.000000019941
   4      0.000000002571
   5     -0.000007702928
   6     -0.000000000900
   7     -0.000000028596
   8     -0.000004454600
   9      0.000000003847
  10      0.000000005071
  11      0.000070552473
  12      0.000000000226
  13      0.000000003517
  14     -0.000000001064
  15      0.000000001627
  16      0.000000004016
  17      0.000000008121
  18     -0.000021856935
  19     -0.000000006938
  20      0.000000005018
  21      0.000000003313
  22      0.000000005186
  23     -0.000021856412
  24     -0.000000000530
  25     -0.000000000149
  26      0.000000001374
  27     -0.000000026786
  28     -0.000000003989
  29     -0.000019152909
  30      0.000000000210
  31     -0.000000014526
  32      0.000083823775
  33     -0.000000002895
  34     -0.000000000930
  35     -0.000021082651
  36      0.000000001999
  37     -0.000000000559
  38      0.000000000023
  39     -0.000018327746
  40     -0.000040114321
  41      0.000004770934
  42      0.000004583219
  43      0.000000002774
  44      0.000018326097
  45      0.000040111045
  46     -0.000004774912
  47      0.000004577924
  48      0.000000002342
 Ene=   0.18378748198935E+01
 Spin= Alpha
 Occup=    0.000000
   1     -0.000000003947
   2      0.000000026575
   3      0.000000054701
   4      0.000000001365
   5      0.151739541293
   6     -0.000266353121
   7     -0.000000045098
   8      0.176915355921
   9     -0.000154402187
  10     -0.000000010195
  11      0.288847641501
  12      0.000452442230
  13      0.000000021624
  14     -0.000000002551
  15     -0.000107109639
  16      0.000256380816
  17     -0.000387868772
  18     -0.403613973870
  19     -0.000184253538
  20      0.000107117520
  21     -0.000256385260
  22      0.000387907836
  23     -0.403613976485
  24     -0.000184275236
  25     -0.000000004742
  26      0.000000038299
  27     -0.000000069217
  28     -0.000000016717
  29     -0.157819707041
  30      0.000256082892
  31     -0.000000046368
  32     -0.091485967686
  33      0.000298579747
  34     -0.000000018203
  35     -0.268084516979
  36     -0.000487483756
  37     -0.000000025208
  38     -0.000000000327
  39     -0.063467584340
  40      0.151910949817
  41      0.229832823815
  42     -0.109176634447
  43     -0.000681170122
  44      0.063467578319
  45     -0.151910967409
  46     -0.229832834214
  47     -0.109176687951
  48     -0.000681170941
 Ene=   0.18378834126474E+01
 Spin= Alpha
 Occup=    0.000000
   1     -0.000000001015
   2      0.000000005513
   3      0.000000000759
   4     -0.000000001622
   5     -0.151683871296
   6     -0.000050646960
   7     -0.000000013126
   8     -0.176922642268
   9     -0.000029371530
  10     -0.000000001160
  11     -0.288811786187
  12      0.000086005316
  13      0.000000003441
  14     -0.000000002051
  15     -0.000020354428
  16      0.000048764506
  17     -0.000073746995
  18      0.403552167840
  19     -0.000035058489
  20      0.000020360625
  21     -0.000048757146
  22      0.000073753890
  23      0.403552164096
  24     -0.000035054959
  25      0.000000000069
  26     -0.000000000347
  27     -0.000000016309
  28      0.000000000018
  29      0.157866739931
  30      0.000048671671
  31     -0.000000008064
  32      0.091565463657
  33      0.000056763242
  34     -0.000000001423