[Molden Format]
[Title]
generated by TRESC, imaginary part1 of MOs of job twisted_C2H4
 
[Atoms] AU
 C   1   6    0.0000000000    0.0000000000    1.3668709329
 H   2   1    0.0000000000    1.7631351343    2.4609882652
 H   3   1    0.0000000000   -1.7631351343    2.4609882652
 C   4   6    0.0000000000    0.0000000000   -1.3668709329
 H   5   1    1.7631351343    0.0000000000   -2.4609882652
 H   6   1   -1.7631351343    0.0000000000   -2.4609882652
[GTO]
  1 0
 s  5 1.0
     1238.4016938000        0.0059599745
      186.2900499200        0.0422621111
       42.2511763500        0.1866575214
       11.6765579300        0.4675815865
        3.5930506500        0.4422897287
 s  1 1.0
        0.4024514700        1.0000000000
 s  1 1.0
        0.1309018300        1.0000000000
 p  3 1.0
        9.4680970600        0.0570294585
        2.0103545100        0.3130471495
        0.5477100500        0.7605135301
 p  1 1.0
        0.1526861400        1.0000000000
 d  1 1.0
        0.8000000000        1.0000000000
 
  2 0
 s  3 1.0
       13.0107010000        0.0391282527
        1.9622572000        0.2855840539
        0.4445379600        0.7689908602
 s  1 1.0
        0.1219496200        1.0000000000
 p  1 1.0
        0.8000000000        1.0000000000
 
  3 0
 s  3 1.0
       13.0107010000        0.0391282527
        1.9622572000        0.2855840539
        0.4445379600        0.7689908602
 s  1 1.0
        0.1219496200        1.0000000000
 p  1 1.0
        0.8000000000        1.0000000000
 
  4 0
 s  5 1.0
     1238.4016938000        0.0059599745
      186.2900499200        0.0422621111
       42.2511763500        0.1866575214
       11.6765579300        0.4675815865
        3.5930506500        0.4422897287
 s  1 1.0
        0.4024514700        1.0000000000
 s  1 1.0
        0.1309018300        1.0000000000
 p  3 1.0
        9.4680970600        0.0570294585
        2.0103545100        0.3130471495
        0.5477100500        0.7605135301
 p  1 1.0
        0.1526861400        1.0000000000
 d  1 1.0
        0.8000000000        1.0000000000
 
  5 0
 s  3 1.0
       13.0107010000        0.0391282527
        1.9622572000        0.2855840539
        0.4445379600        0.7689908602
 s  1 1.0
        0.1219496200        1.0000000000
 p  1 1.0
        0.8000000000        1.0000000000
 
  6 0
 s  3 1.0
       13.0107010000        0.0391282527
        1.9622572000        0.2855840539
        0.4445379600        0.7689908602
 s  1 1.0
        0.1219496200        1.0000000000
 p  1 1.0
        0.8000000000        1.0000000000
 
[5D]
[7F]
[9G]
[MO]
 Ene=  -0.10240848526641E+02
 Spin= Alpha
 Occup=    1.000000
   1     -0.698678124548
   2     -0.034323714354
   3      0.019836900111
   4     -0.002741719278
   5     -0.000000000921
   6      0.000000000054
   7      0.001223119616
   8     -0.000000000192
   9     -0.000000000668
  10      0.000936401590
  11     -0.000000000050
  12      0.000000000030
  13      0.001471734471
  14      0.000000000113
  15      0.003217602301
  16     -0.006068348973
  17     -0.000909236925
  18      0.000000000064
  19     -0.001975919155
  20      0.003217601938
  21     -0.006068349417
  22     -0.000909236737
  23      0.000000000081
  24      0.001975919140
  25     -0.698335120928
  26     -0.034304618334
  27      0.019820889451
  28      0.002742271968
  29      0.000000000018
  30      0.000000000166
  31     -0.001225074913
  32      0.000000000494
  33      0.000000000124
  34      0.000937452016
  35     -0.000000000185
  36      0.000000000024
  37     -0.001470950929
  38      0.000000000068
  39      0.003216016422
  40     -0.006065922586
  41      0.000908528725
  42     -0.001974747084
  43     -0.000000000174
  44      0.003216016975
  45     -0.006065922284
  46      0.000908529274
  47      0.001974746270
  48      0.000000000046
 Ene=  -0.10240781660246E+02
 Spin= Alpha
 Occup=    1.000000
   1     -0.697573750960
   2     -0.038831420838
   3      0.032555199320
   4      0.001124379029
   5     -0.000000001291
   6      0.000000000106
   7     -0.003973431221
   8     -0.000000000213
   9     -0.000000000608
  10     -0.002135761328
  11      0.000000000048
  12      0.000000000016
  13      0.001591441633
  14      0.000000000191
  15      0.003223801257
  16     -0.004934985167
  17     -0.001439513899
  18      0.000000000091
  19     -0.002382513835
  20      0.003223800790
  21     -0.004934985310
  22     -0.001439514055
  23      0.000000000113
  24      0.002382513886
  25      0.697917129623
  26      0.038848288030
  27     -0.032564945155
  28      0.001123031463
  29     -0.000000000493
  30     -0.000000000088
  31     -0.003972830450
  32     -0.000000000189
  33      0.000000000157
  34      0.002135300127
  35      0.000000000713
  36      0.000000000031
  37      0.001592163674
  38      0.000000000109
  39     -0.003225382030
  40      0.004937967487
  41     -0.001439960030
  42      0.002383484402
  43     -0.000000000162
  44     -0.003225382597
  45      0.004937966686
  46     -0.001439960930
  47     -0.002383485929
  48      0.000000000103
 Ene=  -0.10226310726757E+02
 Spin= Alpha
 Occup=    0.000000
   1     -0.000000000122
   2     -0.000000000144
   3      0.000000000040
   4     -0.000000000703
   5     -0.000000054105
   6      0.000000000129
   7      0.000000000266
   8      0.000000035697
   9     -0.000000000010
  10      0.000000000070
  11     -0.000000254543
  12      0.000000000123
  13      0.000000000111
  14      0.000000000001
  15      0.000000000074
  16     -0.000000000064
  17      0.000000000009
  18      0.000000042747
  19     -0.000000000117
  20      0.000000000192
  21     -0.000000000061
  22     -0.000000000168
  23      0.000000042749
  24      0.000000000151
  25      0.000000000169
  26     -0.000000000097
  27      0.000000000132
  28     -0.000000000043
  29      0.000000135211
  30     -0.000000000052
  31     -0.000000000043
  32     -0.000000012379
  33      0.000000000035
  34     -0.000000000155
  35     -0.000000139159
  36      0.000000000245
  37     -0.000000000002
  38     -0.000000000001
  39     -0.000000062582
  40      0.000000002222
  41     -0.000000090051
  42      0.000000018793
  43      0.000000000040
  44      0.000000062630
  45     -0.000000002270
  46      0.000000090058
  47      0.000000018845
  48      0.000000000041
 Ene=  -0.10226214132434E+02
 Spin= Alpha
 Occup=    0.000000
   1      0.000000000151
   2     -0.000000000121
   3     -0.000000000068
   4     -0.000000000773
   5      0.000000006275
   6      0.000000000060
   7      0.000000000311
   8     -0.000000026546
   9      0.000000000019
  10      0.000000000100
  11     -0.000000096945
  12      0.000000000096
  13      0.000000000140
  14      0.000000000001
  15      0.000000000092
  16     -0.000000000058
  17     -0.000000000147
  18      0.000000037757
  19     -0.000000000054
  20      0.000000000204
  21     -0.000000000087
  22     -0.000000000016
  23      0.000000037760
  24      0.000000000231
  25      0.000000000184
  26     -0.000000000058
  27      0.000000000199
  28     -0.000000000265
  29      0.000000063430
  30      0.000000000004
  31      0.000000000097
  32     -0.000000002886
  33     -0.000000000036
  34     -0.000000000136
  35     -0.000000099949
  36      0.000000000096
  37      0.000000000016
  38     -0.000000000001
  39     -0.000000045080
  40      0.000000012451
  41      0.000000064248
  42      0.000000087939
  43      0.000000000038
  44      0.000000044999
  45     -0.000000012439
  46     -0.000000064324
  47      0.000000087851
  48      0.000000000035
 Ene=  -0.77460144563446E+00
 Spin= Alpha
 Occup=    1.000000
   1      0.199408618653
   2     -0.392941922361
   3     -0.141325372698
   4      0.090235104289
   5     -0.000000026456
   6     -0.000000001257
   7      0.017859749144
   8     -0.000000003385
   9     -0.000000004666
  10     -0.007664286269
  11     -0.000000000030
  12     -0.000000000213
  13     -0.003665198867
  14      0.000000000945
  15     -0.099983421220
  16     -0.009576356368
  17      0.007431170925
  18      0.000000000816
  19      0.010734306492
  20     -0.099983423743
  21     -0.009576358825
  22      0.007431172758
  23      0.000000000130
  24     -0.010734307162
  25      0.199408622572
  26     -0.392941938147
  27     -0.141325362076
  28     -0.090235105240
  29     -0.000000006224
  30     -0.000000001961
  31     -0.017859748079
  32      0.000000001358
  33      0.000000001218
  34     -0.007664284278
  35     -0.000000001382
  36      0.000000000213
  37      0.003665203905
  38      0.000000000028
  39     -0.099983425055
  40     -0.009576361784
  41     -0.007431172070
  42      0.010734306733
  43     -0.000000000431
  44     -0.099983422061
  45     -0.009576356500
  46     -0.007431169051
  47     -0.010734308535
  48      0.000000000183
 Ene=  -0.72295427165364E+00
 Spin= Alpha
 Occup=    0.000000
   1     -0.000000001405
   2      0.000000003036
   3      0.000000002414
   4      0.000000003338
   5      0.000036725797
   6     -0.000000023545
   7     -0.000000000335
   8     -0.000004949125
   9      0.000000005026
  10     -0.000000000334
  11     -0.000001001045
  12     -0.000000001745
  13     -0.000000000413
  14      0.000000000044
  15     -0.000000001224
  16     -0.000000003213
  17     -0.000000000921
  18      0.000000527490
  19     -0.000000002141
  20      0.000000003669
  21      0.000000003479
  22      0.000000000900
  23      0.000000527561
  24     -0.000000002299
  25      0.000000001331
  26     -0.000000002611
  27     -0.000000002010
  28      0.000000006019
  29     -0.000042379949
  30      0.000000020236
  31     -0.000000001019
  32      0.000009377443
  33     -0.000000002751
  34      0.000000000321
  35      0.000002881404
  36      0.000000000609
  37     -0.000000000063
  38      0.000000000004
  39     -0.000004754924
  40     -0.000006410956
  41      0.000001728199
  42     -0.000003958529
  43      0.000000000319
  44      0.000004751251
  45      0.000006410272
  46     -0.000001727564
  47     -0.000003958524
  48      0.000000000279
 Ene=  -0.61439790015706E+00
 Spin= Alpha
 Occup=    1.000000
   1      0.163929982909
   2     -0.334244511584
   3     -0.199592195700
   4     -0.149818424731
   5     -0.000000027396
   6      0.000000000979
   7     -0.039078206771
   8     -0.000000006355
   9     -0.000000005902
  10      0.009926756087
  11      0.000000000506
  12      0.000000000383
  13      0.002460727359
  14      0.000000001180
  15     -0.169923250977
  16     -0.030920522565
  17      0.004355145209
  18      0.000000000518
  19      0.013060582411
  20     -0.169923251444
  21     -0.030920523240
  22      0.004355143061
  23      0.000000000517
  24     -0.013060581319
  25     -0.163929983201
  26      0.334244528629
  27      0.199592173229
  28     -0.149818422073
  29      0.000000001505
  30     -0.000000001557
  31     -0.039078208283
  32      0.000000001246
  33     -0.000000001077
  34     -0.009926761285
  35      0.000000001939
  36      0.000000000077
  37      0.002460724223
  38      0.000000000161
  39      0.169923246823
  40      0.030920528044
  41      0.004355144636
  42     -0.013060580251
  43     -0.000000000999
  44      0.169923245767
  45      0.030920528362
  46      0.004355141840
  47      0.013060572811
  48      0.000000001023
 Ene=  -0.57150264381427E+00
 Spin= Alpha
 Occup=    0.000000
   1     -0.000000001191
   2      0.000000001962
   3      0.000000001514
   4      0.000000001535
   5     -0.000106204278
   6     -0.000000160739
   7      0.000000000882
   8     -0.000021474528
   9     -0.000000015889
  10      0.000000000299
  11      0.000002512675
  12     -0.000000006373
  13      0.000000000763
  14     -0.000000000075
  15     -0.000000047424
  16     -0.000000023299
  17     -0.000000003226
  18     -0.000000363601
  19     -0.000000005960
  20      0.000000048220
  21      0.000000021653
  22      0.000000003191
  23     -0.000000363613
  24     -0.000000005882
  25     -0.000000001166
  26      0.000000002770
  27     -0.000000000267
  28     -0.000000004007
  29     -0.000134973828
  30     -0.000000126787
  31      0.000000001944
  32     -0.000014380773
  33     -0.000000026231
  34     -0.000000000023
  35      0.000005353326
  36     -0.000000002940
  37      0.000000000320
  38     -0.000000000030
  39     -0.000039759331
  40     -0.000019206754
  41      0.000002651492
  42     -0.000004961373
  43     -0.000000000494
  44      0.000039761465
  45      0.000019210447
  46     -0.000002652177
  47     -0.000004963266
  48     -0.000000000534
 Ene=  -0.44837861596389E+00
 Spin= Alpha
 Occup=    1.000000
   1      0.000000002213
   2      0.000000007282
   3     -0.000000027508
   4      0.000000044443
   5      0.127974823631
   6      0.000249246529
   7      0.000000016834
   8      0.062697179062
   9      0.000109929581
  10     -0.000000000988
  11     -0.009870475692
  12      0.000007603472
  13     -0.000000004184
  14      0.000000000384
  15      0.000155183922
  16      0.000056519292
  17     -0.000004753175
  18      0.002844570699
  19     -0.000002291206
  20     -0.000155157367
  21     -0.000056497069
  22      0.000004755896
  23      0.002844570777
  24     -0.000002292778
  25      0.000000002639
  26     -0.000000004314
  27      0.000000007329
  28     -0.000000047640
  29      0.309727329636
  30      0.000102985104
  31     -0.000000018963
  32      0.136608156916
  33      0.000050457659
  34     -0.000000001948
  35     -0.009448599520
  36      0.000007943101
  37      0.000000000350
  38      0.000000000022
  39      0.192821875793
  40      0.070221596157
  41      0.005908170796
  42     -0.002848066894
  43      0.000002289430
  44     -0.192821844733
  45     -0.070221591777
  46     -0.005908172219
  47     -0.002848062119
  48      0.000002289335
 Ene=  -0.44826554580918E+00
 Spin= Alpha
 Occup=    0.999999
   1      0.000000000959
   2     -0.000000012640
   3      0.000000021014
   4     -0.000000004842
   5     -0.127476907307
   6      0.000133295154
   7     -0.000000004019
   8     -0.062612935433
   9      0.000058829471
  10     -0.000000000110
  11      0.009872124549
  12      0.000004070261
  13      0.000000000698
  14      0.000000000356
  15      0.000083042253
  16      0.000030248838
  17     -0.000002546717
  18     -0.002841402510
  19     -0.000001232122
  20     -0.000083036167
  21     -0.000030252004
  22      0.000002545039
  23     -0.002841402406
  24     -0.000001229576
  25     -0.000000000631
  26     -0.000000001646
  27     -0.000000000585
  28      0.000000007315
  29     -0.309688959692
  30      0.000054870156
  31      0.000000000606
  32     -0.136682585583
  33      0.000026948952
  34      0.000000000794
  35      0.009456476325
  36      0.000004249138
  37     -0.000000000424
  38     -0.000000000030
  39     -0.192926640300
  40     -0.070281500259
  41     -0.005914961102
  42      0.002859871038
  43      0.000001222949
  44      0.192926637322
  45      0.070281497526
  46      0.005914961753
  47      0.002859871719
  48      0.000001222914
 Ene=  -0.43102217591556E+00
 Spin= Alpha
 Occup=    0.999969
   1     -0.012620229134
   2      0.036065379945
   3     -0.019024656175
   4     -0.409364970988
   5      0.000000017967
   6     -0.000000022337
   7     -0.163455617689
   8      0.000000013399
   9     -0.000000010184
  10      0.011547212268
  11      0.000000000005
  12     -0.000000000059
  13      0.008087161747
  14      0.000000000004
  15     -0.153013652788
  16     -0.058961313307
  17     -0.003893070482
  18      0.000000000651
  19      0.007957755789
  20     -0.153013621690
  21     -0.058961299361
  22     -0.003893072206
  23      0.000000001078
  24     -0.007957754417
  25     -0.012620227628
  26      0.036065374280
  27     -0.019024650751
  28      0.409364977897
  29      0.000000032452
  30     -0.000000006737
  31      0.163455610157
  32      0.000000011915
  33     -0.000000004066
  34      0.011547212709
  35     -0.000000001174
  36     -0.000000000728
  37     -0.008087163741
  38     -0.000000000027
  39     -0.153013617558
  40     -0.058961301523
  41      0.003893073237
  42      0.007957753573
  43      0.000000000064
  44     -0.153013660730
  45     -0.058961324028
  46      0.003893070688
  47     -0.007957753634
  48     -0.000000000366
 Ene=  -0.42101408155425E+00
 Spin= Alpha
 Occup=    0.000000
   1     -0.000038912201
   2      0.000077322759
   3      0.000056649903
   4     -0.000127037826
   5      0.000000000674
   6      0.000000003950
   7      0.000030747795
   8     -0.000000001417
   9      0.000000002633
  10      0.000009074049
  11     -0.000000000632
  12     -0.000000000497
  13      0.000004500365
  14     -0.000000000197
  15      0.000047535061
  16      0.000006523047
  17     -0.000007225557
  18      0.000000000118
  19     -0.000011987113
  20      0.000047529938
  21      0.000006521609
  22     -0.000007225800
  23      0.000000000138
  24      0.000011986875
  25      0.000038904726
  26     -0.000077302647
  27     -0.000056658638
  28     -0.000126855737
  29      0.000000000076
  30     -0.000000001194
  31      0.000030825636
  32      0.000000001211
  33     -0.000000000838
  34     -0.000009069344
  35      0.000000000181
  36      0.000000000112
  37      0.000004497827
  38      0.000000000071
  39     -0.000047600041
  40     -0.000006548213
  41     -0.000007224287
  42      0.000011990599
  43     -0.000000000061
  44     -0.000047604535
  45     -0.000006547722
  46     -0.000007224605
  47     -0.000011992213
  48     -0.000000000027
 Ene=  -0.42094230944445E+00
 Spin= Alpha
 Occup=    0.000031
   1      0.000085166704
   2     -0.000236887762
   3      0.000101319010
   4      0.002229927747
   5      0.000000000185
   6     -0.000000005062
   7      0.000961061125
   8      0.000000000892
   9     -0.000000002074
  10     -0.000069393819
  11     -0.000000000588
  12     -0.000000000091
  13     -0.000042538599
  14      0.000000000168
  15      0.000865606021
  16      0.000336922190
  17      0.000019318130
  18     -0.000000000059
  19     -0.000050760642
  20      0.000865611586
  21      0.000336925166
  22      0.000019317782
  23      0.000000000116
  24      0.000050760662
  25      0.000085165976
  26     -0.000236886782
  27      0.000101322156
  28     -0.002229922469
  29      0.000000002017
  30      0.000000002397
  31     -0.000961062796
  32     -0.000000001021
  33      0.000000000757
  34     -0.000069394029
  35     -0.000000000078
  36     -0.000000000193
  37      0.000042537465
  38      0.000000000009
  39      0.000865609309
  40      0.000336922824
  41     -0.000019317677
  42     -0.000050760741
  43      0.000000000134
  44      0.000865610456
  45      0.000336921680
  46     -0.000019317448
  47      0.000050761966
  48      0.000000000061
 Ene=  -0.41122315330730E+00
 Spin= Alpha
 Occup=    0.000002
   1      0.000000000184
   2      0.000000000516
   3     -0.000000002042
   4     -0.000000003312
   5      0.000492548885
   6     -0.000000596610
   7      0.000000000734
   8      0.000169260491
   9     -0.000000738221
  10      0.000000000127
  11     -0.000010291987
  12      0.000000040355
  13     -0.000000000627
  14     -0.000000000043
  15     -0.000000723465
  16     -0.000000188757
  17      0.000000065996
  18      0.000009351811
  19      0.000000073286
  20      0.000000724825
  21      0.000000187278
  22     -0.000000066120
  23      0.000009351772
  24      0.000000073309
  25     -0.000000000574
  26      0.000000001720
  27     -0.000000000948
  28     -0.000000004681
  29      0.000155996721
  30     -0.000001877930
  31      0.000000003105
  32      0.000193387884
  33     -0.000000646002
  34     -0.000000000318
  35      0.000010575211
  36     -0.000000039337
  37      0.000000000542
  38      0.000000000020
  39      0.000189983433
  40      0.000049611229
  41      0.000017352205
  42     -0.000019255179
  43     -0.000000035570
  44     -0.000189983588
  45     -0.000049605774
  46     -0.000017353109
  47     -0.000019257688
  48     -0.000000035792
 Ene=  -0.22805779581269E+00
 Spin= Alpha
 Occup=    1.000000
   1      0.000000008443
   2     -0.000000060832
   3      0.000000066649
   4     -0.000000004861
   5     -0.418623816321
   6      0.000054382668
   7     -0.000000010198
   8     -0.368892288602
   9      0.000041983026
  10     -0.000000000860
  11     -0.001544352925
  12      0.000018560149
  13      0.000000004778
  14      0.000000000222
  15      0.000079464153
  16      0.000065370105
  17      0.000000995816
  18     -0.013498295297
  19      0.000000033702
  20     -0.000079444723
  21     -0.000065360241
  22     -0.000001000537
  23     -0.013498294790
  24      0.000000041618
  25     -0.000000001741
  26      0.000000000587
  27     -0.000000005020
  28      0.000000013533
  29      0.077856082818
  30     -0.000292405622
  31      0.000000000365
  32      0.060102880352
  33     -0.000257666005
  34      0.000000001617
  35     -0.026571812844
  36      0.000001078741
  37     -0.000000000775
  38      0.000000000093
  39      0.113751187580
  40      0.093583727201
  41     -0.001429092430
  42      0.000053689081
  43     -0.000009428486
  44     -0.113751198406
  45     -0.093583748644
  46      0.001429093568
  47      0.000053691905
  48     -0.000009428162
 Ene=  -0.22797355330852E+00
 Spin= Alpha
 Occup=    1.000000
   1     -0.000000008388
   2      0.000000061644
   3     -0.000000071995
   4      0.000000001331
   5      0.418441613286
   6     -0.000052228380
   7      0.000000004348
   8      0.368913035834
   9     -0.000040568000
  10      0.000000000958
  11      0.001544536050
  12     -0.000017868707
  13     -0.000000004553
  14     -0.000000000025
  15     -0.000076705273
  16     -0.000063121953
  17     -0.000000943024
  18      0.013494676208
  19     -0.000000005920
  20      0.000076685234
  21      0.000063124055
  22      0.000000947789
  23      0.013494676021
  24     -0.000000013990
  25      0.000000001910
  26     -0.000000002460
  27      0.000000022543
  28     -0.000000010027
  29     -0.077641209970
  30      0.000281490390
  31     -0.000000009314
  32     -0.060302249689
  33      0.000248174403
  34     -0.000000001432
  35      0.026562118979
  36     -0.000001039018
  37     -0.000000000122
  38      0.000000000092
  39     -0.114011835121
  40     -0.093831160774
  41      0.001405250663
  42     -0.000014794785
  43      0.000009078001
  44      0.114011837376
  45      0.093831146457
  46     -0.001405251680
  47     -0.000014789586
  48      0.000009078263
 Ene=  -0.41584343587576E-01
 Spin= Alpha
 Occup=    0.000000
   1      0.000035151393
   2     -0.000077670974
   3     -0.000194246997
   4     -0.000058748216
   5     -0.000000001551
   6      0.000000000621
   7      0.000093376442
   8     -0.000000001089
   9     -0.000000001152
  10     -0.000009221279
  11     -0.000000000273
  12      0.000000001042
  13     -0.000001642524
  14      0.000000000198
  15      0.000068316610
  16      0.000174598681
  17     -0.000003314685
  18     -0.000000000057
  19     -0.000008457511
  20      0.000068317341
  21      0.000174602674
  22     -0.000003315220
  23      0.000000000045
  24      0.000008457786
  25      0.000035150666
  26     -0.000077671173
  27     -0.000194218707
  28      0.000058745821
  29      0.000000002446
  30     -0.000000000645
  31     -0.000093374637
  32     -0.000000003611
  33      0.000000002270
  34     -0.000009222726
  35     -0.000000000340
  36     -0.000000000055
  37      0.000001641206
  38      0.000000000051
  39      0.000068314906
  40      0.000174591544
  41      0.000003315057
  42     -0.000008457370
  43      0.000000000157
  44      0.000068314223
  45      0.000174585364
  46      0.000003316309
  47      0.000008458880
  48      0.000000000227
 Ene=  -0.41566899707241E-01
 Spin= Alpha
 Occup=    0.000000
   1      0.000022180886
   2     -0.000042474454
   3     -0.000121797585
   4      0.000202367701
   5     -0.000000002435
   6     -0.000000001492
   7      0.000076727864
   8      0.000000000262
   9     -0.000000001193
  10     -0.000006701995
  11      0.000000000672
  12      0.000000000409
  13     -0.000006099267
  14      0.000000000274
  15     -0.000027552902
  16     -0.000049481359
  17      0.000008861197
  18     -0.000000000113
  19      0.000007681451
  20     -0.000027555237
  21     -0.000049485268
  22      0.000008861469
  23     -0.000000000200
  24     -0.000007681557
  25     -0.000022176107
  26      0.000042464451
  27      0.000121783412
  28      0.000202374192
  29     -0.000000002330
  30     -0.000000001186
  31      0.000076705262
  32     -0.000000003622
  33      0.000000001450
  34      0.000006701884
  35     -0.000000000355
  36     -0.000000000103
  37     -0.000006100477
  38     -0.000000000077
  39      0.000027565340
  40      0.000049506241
  41      0.000008861970
  42     -0.000007683018
  43      0.000000000229
  44      0.000027562514
  45      0.000049489880
  46      0.000008862562
  47      0.000007685116
  48      0.000000000093
 Ene=   0.97401179471253E-01
 Spin= Alpha
 Occup=    0.000000
   1     -0.114950356376
   2      0.199767744771
   3      1.979116105942
   4      0.049054321402
   5     -0.000000003809
   6     -0.000000004351
   7      0.085918923267
   8     -0.000000003075
   9      0.000000003606
  10     -0.010207249553
  11      0.000000001325
  12     -0.000000000266
  13      0.018591586041
  14     -0.000000001018
  15     -0.083203058350
  16     -1.034306864311
  17     -0.004156216246
  18     -0.000000000729
  19     -0.008453482903
  20     -0.083203053829
  21     -1.034306872725
  22     -0.004156214895
  23     -0.000000000715
  24      0.008453482813
  25      0.114950403017
  26     -0.199767888374
  27     -1.979116670038
  28      0.049054391539
  29     -0.000000027502
  30     -0.000000002532
  31      0.085919155175
  32     -0.000000074408
  33     -0.000000003436
  34      0.010207251599
  35     -0.000000003605
  36     -0.000000000023
  37      0.018591590169
  38     -0.000000000012
  39      0.083203082042
  40      1.034307424274
  41     -0.004156215357
  42      0.008453484443
  43      0.000000001025
  44      0.083203062138
  45      1.034307214813
  46     -0.004156212479
  47     -0.008453479559
  48     -0.000000001114
 Ene=   0.10335274165905E+00
 Spin= Alpha
 Occup=    0.000000
   1     -0.093366273957
   2      0.222172880082
   3      1.427366003145
   4      0.162612875240
   5     -0.000000005543
   6     -0.000000001332
   7      0.511687915996
   8     -0.000000032968
   9      0.000000004494
  10      0.005531965137
  11     -0.000000000967
  12     -0.000000000502
  13      0.002894650179
  14     -0.000000000984
  15     -0.027232017014
  16     -1.076444512806
  17      0.000782770567
  18     -0.000000001214
  19     -0.006591327295
  20     -0.027232012990
  21     -1.076444511697
  22      0.000782769819
  23     -0.000000000505
  24      0.006591327312
  25     -0.093366226028
  26      0.222172806875
  27      1.427365120303
  28     -0.162612850442
  29      0.000000006449
  30     -0.000000003249
  31     -0.511687856368
  32      0.000000024841
  33      0.000000003026
  34      0.005531968355
  35      0.000000000035
  36      0.000000000028
  37     -0.002894645841
  38      0.000000000052
  39     -0.027231978521
  40     -1.076444067566
  41     -0.000782772594
  42     -0.006591323624
  43      0.000000000539
  44     -0.027231983594
  45     -1.076444015378
  46     -0.000782773430
  47      0.006591325972
  48     -0.000000000358
 Ene=   0.11592909432776E+00
 Spin= Alpha
 Occup=    0.000000
   1      0.000000001399
   2     -0.000000001981
   3     -0.000000027912
   4     -0.000000003661
   5      0.000047042062
   6     -0.000000025009
   7     -0.000000009189
   8     -0.000018434096
   9     -0.000000051590
  10      0.000000000256
  11      0.000007944031
  12      0.000000000699
  13     -0.000000000773
  14      0.000000000033
  15      0.000000008538
  16      0.000000094777
  17     -0.000000000301
  18     -0.000001449352
  19     -0.000000000069
  20     -0.000000004844
  21     -0.000000058091
  22     -0.000000000144
  23     -0.000001449334
  24     -0.000000000649
  25     -0.000000001586
  26      0.000000002697
  27      0.000000025235
  28     -0.000000006061
  29     -0.000214804829
  30      0.000000005298
  31     -0.000000003253
  32     -0.000411137660
  33      0.000000000717
  34     -0.000000000490
  35     -0.000003953546
  36     -0.000000001023
  37      0.000000000038
  38      0.000000000105
  39      0.000058209827
  40      0.000639047231
  41      0.000002046124
  42     -0.000003308568
  43      0.000000000005
  44     -0.000058212161
  45     -0.000639083491
  46     -0.000002047808
  47     -0.000003309106
  48     -0.000000000114
 Ene=   0.11952754243168E+00
 Spin= Alpha
 Occup=    0.000000
   1      0.000000001113
   2     -0.000000003555
   3     -0.000000023340
   4     -0.000000011665
   5     -0.000021551178
   6     -0.000000055462
   7     -0.000000024565
   8      0.000132963980
   9     -0.000000120352
  10      0.000000000243
  11      0.000006280940
  12     -0.000000000561
  13      0.000000000407
  14     -0.000000000054
  15      0.000000008254
  16      0.000000196359
  17     -0.000000002295
  18      0.000002823960
  19     -0.000000000304
  20     -0.000000006578
  21     -0.000000135396
  22      0.000000001245
  23      0.000002823990
  24     -0.000000000511
  25      0.000000001821
  26     -0.000000004535
  27     -0.000000027953
  28     -0.000000008966
  29     -0.000114182313
  30     -0.000000009983
  31     -0.000000000560
  32     -0.000246042324
  33      0.000000063620
  34     -0.000000000559