[Molden Format]
[Title]
generated by TRESC, real part1 of MOs of job twisted_C2H4
 
[Atoms] AU
 C   1   6    0.0000000000    0.0000000000    1.3668709329
 H   2   1    0.0000000000    1.7631351343    2.4609882652
 H   3   1    0.0000000000   -1.7631351343    2.4609882652
 C   4   6    0.0000000000    0.0000000000   -1.3668709329
 H   5   1    1.7631351343    0.0000000000   -2.4609882652
 H   6   1   -1.7631351343    0.0000000000   -2.4609882652
[GTO]
  1 0
 s  5 1.0
     1238.4016938000        0.0059599745
      186.2900499200        0.0422621111
       42.2511763500        0.1866575214
       11.6765579300        0.4675815865
        3.5930506500        0.4422897287
 s  1 1.0
        0.4024514700        1.0000000000
 s  1 1.0
        0.1309018300        1.0000000000
 p  3 1.0
        9.4680970600        0.0570294585
        2.0103545100        0.3130471495
        0.5477100500        0.7605135301
 p  1 1.0
        0.1526861400        1.0000000000
 d  1 1.0
        0.8000000000        1.0000000000
 
  2 0
 s  3 1.0
       13.0107010000        0.0391282527
        1.9622572000        0.2855840539
        0.4445379600        0.7689908602
 s  1 1.0
        0.1219496200        1.0000000000
 p  1 1.0
        0.8000000000        1.0000000000
 
  3 0
 s  3 1.0
       13.0107010000        0.0391282527
        1.9622572000        0.2855840539
        0.4445379600        0.7689908602
 s  1 1.0
        0.1219496200        1.0000000000
 p  1 1.0
        0.8000000000        1.0000000000
 
  4 0
 s  5 1.0
     1238.4016938000        0.0059599745
      186.2900499200        0.0422621111
       42.2511763500        0.1866575214
       11.6765579300        0.4675815865
        3.5930506500        0.4422897287
 s  1 1.0
        0.4024514700        1.0000000000
 s  1 1.0
        0.1309018300        1.0000000000
 p  3 1.0
        9.4680970600        0.0570294585
        2.0103545100        0.3130471495
        0.5477100500        0.7605135301
 p  1 1.0
        0.1526861400        1.0000000000
 d  1 1.0
        0.8000000000        1.0000000000
 
  5 0
 s  3 1.0
       13.0107010000        0.0391282527
        1.9622572000        0.2855840539
        0.4445379600        0.7689908602
 s  1 1.0
        0.1219496200        1.0000000000
 p  1 1.0
        0.8000000000        1.0000000000
 
  6 0
 s  3 1.0
       13.0107010000        0.0391282527
        1.9622572000        0.2855840539
        0.4445379600        0.7689908602
 s  1 1.0
        0.1219496200        1.0000000000
 p  1 1.0
        0.8000000000        1.0000000000
 
[5D]
[7F]
[9G]
[MO]
 Ene=  -0.10240848526641E+02
 Spin= Alpha
 Occup=    1.000000
   1     -0.000002570469
   2     -0.000000126284
   3      0.000000073019
   4     -0.000000010080
   5      0.000000000019
   6      0.000000000832
   7      0.000000004491
   8     -0.000000000010
   9     -0.000000000343
  10      0.000000003440
  11     -0.000000000004
  12      0.000000000184
  13      0.000000005391
  14     -0.000000406182
  15      0.000000011626
  16     -0.000000022186
  17     -0.000000003208
  18     -0.000000099292
  19     -0.000000007060
  20      0.000000012036
  21     -0.000000022469
  22     -0.000000003477
  23      0.000000099298
  24      0.000000007479
  25     -0.000002567264
  26     -0.000000126105
  27      0.000000072840
  28      0.000000010087
  29      0.000000000017
  30     -0.000000000048
  31     -0.000000004516
  32     -0.000000000003
  33      0.000000000097
  34      0.000000003450
  35     -0.000000000006
  36      0.000000000011
  37     -0.000000005406
  38      0.000000405884
  39      0.000000011814
  40     -0.000000022296
  41      0.000000003336
  42     -0.000000007258
  43      0.000000099274
  44      0.000000011834
  45     -0.000000022307
  46      0.000000003343
  47      0.000000007261
  48     -0.000000099277
 Ene=  -0.10240781660246E+02
 Spin= Alpha
 Occup=    1.000000
   1     -0.000046481551
   2     -0.000002587451
   3      0.000002169240
   4      0.000000074917
   5     -0.000000000031
   6      0.000000000877
   7     -0.000000264751
   8      0.000000000012
   9     -0.000000000329
  10     -0.000000142308
  11     -0.000000000005
  12      0.000000000214
  13      0.000000106028
  14     -0.000000392936
  15      0.000000214580
  16     -0.000000328689
  17     -0.000000095777
  18     -0.000000079249
  19     -0.000000158529
  20      0.000000215040
  21     -0.000000328987
  22     -0.000000096058
  23      0.000000079258
  24      0.000000158972
  25      0.000046502485
  26      0.000002588482
  27     -0.000002169828
  28      0.000000074833
  29      0.000000000017
  30      0.000000000075
  31     -0.000000264717
  32     -0.000000000008
  33      0.000000000023
  34      0.000000142280
  35     -0.000000000002
  36     -0.000000000022
  37      0.000000106089
  38     -0.000000392990
  39     -0.000000214918
  40      0.000000329021
  41     -0.000000095951
  42      0.000000158812
  43     -0.000000079341
  44     -0.000000214906
  45      0.000000329014
  46     -0.000000095943
  47     -0.000000158810
  48      0.000000079344
 Ene=  -0.10226310726757E+02
 Spin= Alpha
 Occup=    0.000000
   1     -0.000000000748
   2     -0.000000000041
   3      0.000000000046
   4      0.000000000041
   5     -0.000000000053
   6     -0.000000135171
   7     -0.000000000026
   8      0.000000000028
   9      0.000000012379
  10     -0.000000000016
  11     -0.000000000252
  12     -0.000000139147
  13     -0.000000000008
  14      0.000000000011
  15      0.000000062587
  16     -0.000000002242
  17     -0.000000090057
  18      0.000000000031
  19     -0.000000018782
  20     -0.000000062595
  21      0.000000002243
  22      0.000000090072
  23      0.000000000039
  24     -0.000000018785
  25      0.000000000749
  26      0.000000000039
  27     -0.000000000072
  28      0.000000000034
  29      0.000000000130
  30      0.000000054155
  31     -0.000000000004
  32      0.000000000015
  33     -0.000000035725
  34      0.000000000016
  35     -0.000000000134
  36     -0.000000254577
  37     -0.000000000006
  38      0.000000000014
  39     -0.000000000059
  40      0.000000000004
  41     -0.000000000089
  42      0.000000000013
  43     -0.000000042739
  44      0.000000000092
  45      0.000000000015
  46      0.000000000089
  47      0.000000000022
  48     -0.000000042740
 Ene=  -0.10226214132434E+02
 Spin= Alpha
 Occup=    0.000000
   1      0.000000000744
   2      0.000000000025
   3     -0.000000000002
   4     -0.000000000024
   5     -0.000000000008
   6      0.000000063458
   7      0.000000000006
   8      0.000000000025
   9     -0.000000002932
  10     -0.000000000007
  11      0.000000000093
  12      0.000000099976
  13     -0.000000000006
  14      0.000000000008
  15     -0.000000045027
  16      0.000000012459
  17     -0.000000064239
  18     -0.000000000029
  19      0.000000087908
  20      0.000000045028
  21     -0.000000012457
  22      0.000000064244
  23     -0.000000000040
  24      0.000000087918
  25      0.000000000748
  26      0.000000000033
  27     -0.000000000034
  28     -0.000000000004
  29     -0.000000000069
  30      0.000000006239
  31      0.000000000001
  32      0.000000000016
  33     -0.000000026518
  34     -0.000000000001
  35      0.000000000108
  36      0.000000097134
  37      0.000000000004
  38     -0.000000000012
  39      0.000000000047
  40     -0.000000000011
  41     -0.000000000070
  42     -0.000000000090
  43      0.000000037778
  44     -0.000000000064
  45      0.000000000035
  46      0.000000000066
  47     -0.000000000087
  48      0.000000037777
 Ene=  -0.77460144563446E+00
 Spin= Alpha
 Occup=    1.000000
   1     -0.000002817254
   2      0.000005551456
   3      0.000001996819
   4     -0.000001274814
   5      0.000000001251
   6     -0.000000003247
   7     -0.000000252279
   8     -0.000000000017
   9     -0.000000000024
  10      0.000000108272
  11     -0.000000000038
  12     -0.000000000353
  13      0.000000051444
  14     -0.000000507019
  15      0.000001412419
  16      0.000000134886
  17     -0.000000105108
  18     -0.000000738502
  19     -0.000000151864
  20      0.000001412624
  21      0.000000135625
  22     -0.000000104833
  23      0.000000738533
  24      0.000000151508
  25     -0.000002817248
  26      0.000005551469
  27      0.000001996623
  28      0.000001274838
  29      0.000000002498
  30     -0.000000004825
  31      0.000000252330
  32     -0.000000000275
  33      0.000000000529
  34      0.000000108289
  35     -0.000000000173
  36      0.000000000059
  37     -0.000000051696
  38      0.000000507519
  39      0.000001412755
  40      0.000000135615
  41      0.000000104874
  42     -0.000000151471
  43      0.000000738552
  44      0.000001412588
  45      0.000000135017
  46      0.000000105112
  47      0.000000151779
  48     -0.000000738788
 Ene=  -0.72295427165364E+00
 Spin= Alpha
 Occup=    0.000000
   1     -0.000000000205
   2      0.000000000489
   3      0.000000000083
   4      0.000000000590
   5      0.000000020311
   6      0.000042372445
   7     -0.000000000145
   8     -0.000000002476
   9     -0.000009375681
  10     -0.000000000177
  11     -0.000000000702
  12      0.000002881042
  13     -0.000000000021
  14     -0.000000000221
  15      0.000004752834
  16      0.000006408957
  17      0.000001727632
  18      0.000000000498
  19      0.000003957737
  20     -0.000004752729
  21     -0.000006409020
  22     -0.000001727572
  23      0.000000000388
  24      0.000003957703
  25      0.000000000209
  26     -0.000000000546
  27      0.000000000652
  28      0.000000002063
  29     -0.000000023220
  30     -0.000036733507
  31     -0.000000000445
  32      0.000000004395
  33      0.000004948968
  34      0.000000000119
  35      0.000000001577
  36     -0.000001001283
  37     -0.000000000025
  38      0.000000000114
  39     -0.000000002655
  40     -0.000000003630
  41      0.000000000994
  42     -0.000000002241
  43     -0.000000527447
  44      0.000000001531
  45      0.000000002755
  46     -0.000000001036
  47     -0.000000002099
  48     -0.000000527497
 Ene=  -0.61439790015706E+00
 Spin= Alpha
 Occup=    1.000000
   1     -0.000005936116
   2      0.000012103426
   3      0.000007227229
   4      0.000005425138
   5     -0.000000004332
   6     -0.000000001301
   7      0.000001415101
   8     -0.000000000379
   9      0.000000000324
  10     -0.000000359457
  11      0.000000000064
  12     -0.000000000124
  13     -0.000000089166
  14     -0.000000105464
  15      0.000006153065
  16      0.000001119587
  17     -0.000000157781
  18     -0.000001077215
  19     -0.000000472992
  20      0.000006153578
  21      0.000001119863
  22     -0.000000157649
  23      0.000001077232
  24      0.000000472801
  25      0.000005936137
  26     -0.000012103478
  27     -0.000007227251
  28      0.000005425149
  29     -0.000000002237
  30      0.000000004579
  31      0.000001415136
  32     -0.000000000321
  33     -0.000000000284
  34      0.000000359450
  35      0.000000000097
  36     -0.000000000078
  37     -0.000000088932
  38     -0.000000105336
  39     -0.000006153901
  40     -0.000001119954
  41     -0.000000157709
  42      0.000000472837
  43     -0.000001077209
  44     -0.000006152748
  45     -0.000001119480
  46     -0.000000157733
  47     -0.000000472984
  48      0.000001077652
 Ene=  -0.57150264381427E+00
 Spin= Alpha
 Occup=    0.000000
   1     -0.000000000216
   2      0.000000000089
   3      0.000000001789
   4     -0.000000003263
   5      0.000000127353
   6     -0.000134974162
   7     -0.000000000436
   8      0.000000025873
   9     -0.000014380352
  10      0.000000000218
  11     -0.000000003070
  12     -0.000005353639
  13      0.000000000080
  14     -0.000000000286
  15     -0.000039759439
  16     -0.000019208002
  17     -0.000002651863
  18      0.000000000840
  19     -0.000004961843
  20      0.000039759416
  21      0.000019207585
  22      0.000002651732
  23      0.000000000303
  24     -0.000004961497
  25     -0.000000000159
  26      0.000000000553
  27     -0.000000001829
  28     -0.000000000822
  29      0.000000162512
  30     -0.000106205259
  31      0.000000000159
  32      0.000000018798
  33     -0.000021475998
  34     -0.000000000050
  35     -0.000000006215
  36     -0.000002512823
  37      0.000000000097
  38     -0.000000000105
  39      0.000000048295
  40      0.000000023207
  41     -0.000000003220
  42      0.000000005908
  43     -0.000000363629
  44     -0.000000049738
  45     -0.000000022393
  46      0.000000003178
  47      0.000000005879
  48     -0.000000364339
 Ene=  -0.44837861596389E+00
 Spin= Alpha
 Occup=    1.000000
   1     -0.000000000679
   2      0.000000004536
   3     -0.000000008087
   4     -0.000000024769
   5     -0.000103924834
   6      0.309727058567
   7     -0.000000006140
   8     -0.000050915663
   9      0.136608044725
  10      0.000000000552
  11      0.000008015800
  12      0.009448590742
  13      0.000000000711
  14     -0.000000000860
  15      0.192821682702
  16      0.070221525178
  17     -0.005908166824
  18     -0.000002311652
  19     -0.002848064018
  20     -0.192821701284
  21     -0.070221531444
  22      0.005908166339
  23     -0.000002309139
  24     -0.002848065131
  25      0.000000000803
  26     -0.000000002751
  27      0.000000003807
  28      0.000000025354
  29     -0.000251526727
  30      0.127974720826
  31      0.000000009118
  32     -0.000110941794
  33      0.062697125070
  34      0.000000000286
  35      0.000007672779
  36      0.009870466890
  37     -0.000000000675
  38      0.000000000032
  39     -0.000156599736
  40     -0.000057030227
  41     -0.000004797890
  42      0.000002313485
  43      0.002844568697
  44      0.000156585330
  45      0.000057022841
  46      0.000004798369
  47      0.000002312949
  48      0.002844570219
 Ene=  -0.44826554580918E+00
 Spin= Alpha
 Occup=    0.999999
   1      0.000000000178
   2      0.000000001621
   3     -0.000000003541
   4     -0.000000009873
   5      0.000055808242
   6      0.309689231810
   7     -0.000000002594
   8      0.000027411407
   9      0.136682708390
  10      0.000000000308
  11     -0.000004321898
  12      0.009456484716
  13     -0.000000000190
  14     -0.000000001338
  15      0.192926805226
  16      0.070281559083
  17     -0.005914966663
  18      0.000001244010
  19     -0.002859873574
  20     -0.192926813528
  21     -0.070281562194
  22      0.005914966677
  23      0.000001244618
  24     -0.002859874240
  25     -0.000000000843
  26      0.000000000735
  27      0.000000003538
  28      0.000000006058
  29      0.000135574903
  30      0.127477006363
  31      0.000000001289
  32      0.000059838068
  33      0.062612984423
  34     -0.000000000086
  35     -0.000004139837
  36      0.009872133019
  37     -0.000000000144
  38     -0.000000000378
  39      0.000084459916
  40      0.000030767528
  41      0.000002589794
  42     -0.000001252414
  43      0.002841404935
  44     -0.000084464465
  45     -0.000030769372
  46     -0.000002589452
  47     -0.000001251850
  48      0.002841404174
 Ene=  -0.43102217591556E+00
 Spin= Alpha
 Occup=    0.999969
   1      0.000000058656
   2     -0.000000167713
   3      0.000000088686
   4      0.000001903139
   5      0.000000001874
   6      0.000000028926
   7      0.000000759940
   8      0.000000001731
   9      0.000000014461
  10     -0.000000053690
  11     -0.000000000545
  12      0.000000000752
  13     -0.000000037766
  14      0.000000529520
  15      0.000000731651
  16      0.000000281728
  17      0.000000017376
  18     -0.000000933381
  19     -0.000000037530
  20      0.000000690913
  21      0.000000266460
  22      0.000000018836
  23      0.000000933643
  24      0.000000036549
  25      0.000000058678
  26     -0.000000167669
  27      0.000000088178
  28     -0.000001903092
  29      0.000000011955
  30      0.000000005936
  31     -0.000000759841
  32      0.000000006003
  33      0.000000005368
  34     -0.000000053673
  35     -0.000000000406
  36      0.000000000966
  37      0.000000037721
  38     -0.000000529632
  39      0.000000719515
  40      0.000000277235
  41     -0.000000017842
  42     -0.000000037128
  43      0.000000933751
  44      0.000000703438
  45      0.000000271259
  46     -0.000000018356
  47      0.000000036756
  48     -0.000000933454
 Ene=  -0.42101408155425E+00
 Spin= Alpha
 Occup=    0.000000
   1      0.000000000109
   2     -0.000000000060
   3     -0.000000000330
   4     -0.000000001133
   5      0.000000002880
   6      0.000000001122
   7     -0.000000000858
   8      0.000000001141
   9      0.000000000273
  10      0.000000000005
  11     -0.000000000044
  12      0.000000000097
  13      0.000000000062
  14     -0.000000832804
  15     -0.000000000273
  16     -0.000000000035
  17      0.000000000017
  18      0.000000495563
  19      0.000000000165
  20     -0.000000001583
  21     -0.000000000552
  22      0.000000000009
  23     -0.000000495476
  24     -0.000000000079
  25     -0.000000000260
  26      0.000000000601
  27      0.000000000328
  28      0.000000002464
  29     -0.000000000307
  30     -0.000000002743
  31      0.000000000275
  32      0.000000000441
  33     -0.000000000570
  34      0.000000000080
  35      0.000000000235
  36      0.000000000013
  37     -0.000000000079
  38     -0.000000832890
  39     -0.000000000274
  40     -0.000000000442
  41      0.000000000176
  42     -0.000000000179
  43      0.000000495341
  44     -0.000000000795
  45     -0.000000000318
  46      0.000000000099
  47     -0.000000000104
  48     -0.000000495391
 Ene=  -0.42094230944445E+00
 Spin= Alpha
 Occup=    0.000031
   1     -0.000000000867
   2      0.000000002218
   3      0.000000000057
   4     -0.000000015353
   5      0.000000002729
   6     -0.000000000968
   7     -0.000000006102
   8      0.000000000998
   9     -0.000000000141
  10      0.000000000364
  11     -0.000000000186
  12     -0.000000000011
  13      0.000000000288
  14     -0.000000113394
  15     -0.000000005877
  16     -0.000000002405
  17     -0.000000000208
  18      0.000000457485
  19      0.000000000189
  20     -0.000000004613
  21     -0.000000001913
  22     -0.000000000111
  23     -0.000000457401
  24     -0.000000000257
  25     -0.000000000238
  26      0.000000000913
  27     -0.000000001163
  28      0.000000013706
  29     -0.000000000250
  30      0.000000002446
  31      0.000000006060
  32      0.000000000520
  33      0.000000000300
  34      0.000000000389
  35      0.000000000235
  36     -0.000000000179
  37     -0.000000000214
  38      0.000000113273
  39     -0.000000005712
  40     -0.000000002499
  41      0.000000000126
  42      0.000000000209
  43     -0.000000457291
  44     -0.000000006285
  45     -0.000000002375
  46      0.000000000059
  47     -0.000000000466
  48      0.000000457039
 Ene=  -0.41122315330730E+00
 Spin= Alpha
 Occup=    0.000002
   1     -0.000000000587
   2      0.000000001657
   3     -0.000000001348
   4      0.000000000540
   5     -0.000001879103
   6     -0.000155951804
   7      0.000000001100
   8     -0.000000645040
   9     -0.000193357817
  10      0.000000000103
  11      0.000000039476
  12      0.000010576688
  13      0.000000000214
  14     -0.000000000440
  15     -0.000189947987
  16     -0.000049597101
  17      0.000017350689
  18     -0.000000034676
  19      0.000019253838
  20      0.000189948657
  21      0.000049596348
  22     -0.000017350984
  23     -0.000000035293
  24      0.000019253943
  25     -0.000000000188
  26     -0.000000000105
  27      0.000000006429
  28     -0.000000000027
  29     -0.000000601615
  30     -0.000492551403
  31     -0.000000000635
  32     -0.000000744799
  33     -0.000169257323
  34     -0.000000000087
  35     -0.000000040437
  36     -0.000010290960
  37      0.000000000192
  38      0.000000000096
  39     -0.000000727961
  40     -0.000000190771
  41     -0.000000066264
  42      0.000000073527
  43     -0.000009351600
  44      0.000000723610
  45      0.000000186755
  46      0.000000066017
  47      0.000000073314
  48     -0.000009353197
 Ene=  -0.22805779581269E+00
 Spin= Alpha
 Occup=    1.000000
   1      0.000000000323
   2      0.000000000680
   3     -0.000000000402
   4      0.000000001410
   5     -0.000292579986
   6     -0.077855452494
   7     -0.000000002013
   8     -0.000257823908
   9     -0.060102403386
  10     -0.000000000011
  11     -0.000001079545
  12     -0.026571597360
  13     -0.000000000919
  14      0.000000001744
  15     -0.113750278333
  16     -0.093582980469
  17     -0.001429080635
  18     -0.000009434878
  19     -0.000053686839
  20      0.113750274873
  21      0.093582980596
  22      0.001429081362
  23     -0.000009434854
  24     -0.000053687659
  25      0.000000000194
  26     -0.000000000532
  27     -0.000000007995
  28      0.000000002688
  29      0.000054415241
  30      0.418620446731
  31      0.000000000072
  32      0.000042013638
  33      0.368889308005
  34      0.000000000194
  35     -0.000018570920
  36     -0.001544340908
  37     -0.000000000365
  38     -0.000000000268
  39      0.000079502039
  40      0.000065406885
  41     -0.000000998560
  42      0.000000037279
  43      0.013498186403
  44     -0.000079495599
  45     -0.000065399018
  46      0.000000999612
  47      0.000000038373
  48      0.013498188570
 Ene=  -0.22797355330852E+00
 Spin= Alpha
 Occup=    1.000000
   1     -0.000000000581
   2      0.000000004251
   3     -0.000000006500
   4      0.000000001835
   5     -0.000281314566
   6     -0.077641836258
   7      0.000000004409
   8     -0.000248017271
   9     -0.060302719630
  10     -0.000000000300
  11     -0.000001038404
  12     -0.026562333846
  13      0.000000000696
  14      0.000000000034
  15     -0.114012748789
  16     -0.093831911286
  17     -0.001405263381
  18     -0.000009072962
  19     -0.000014795505
  20      0.114012749227
  21      0.093831911579
  22      0.001405263348
  23     -0.000009072157
  24     -0.000014795524
  25      0.000000001131
  26     -0.000000003976
  27      0.000000007599
  28      0.000000000709
  29      0.000052200200
  30      0.418444994060
  31     -0.000000002285
  32      0.000040538038
  33      0.368916004897
  34     -0.000000000198
  35     -0.000017858027
  36     -0.001544548293
  37     -0.000000000122
  38     -0.000000000483
  39      0.000076651815
  40      0.000063083240
  41     -0.000000944662
  42      0.000000009786
  43      0.013494785146
  44     -0.000076649223
  45     -0.000063085217
  46      0.000000944853
  47      0.000000010502
  48      0.013494786144
 Ene=  -0.41584343587576E-01
 Spin= Alpha
 Occup=    0.000000
   1     -0.000000000326
   2      0.000000000830
   3      0.000000000777
   4      0.000000000455
   5     -0.000000000265
   6      0.000000000309
   7     -0.000000000441
   8     -0.000000000216
   9      0.000000000902
  10      0.000000000297
  11      0.000000000330
  12     -0.000000000440
  13      0.000000000074
  14     -0.000001574233
  15     -0.000000000102
  16     -0.000000001231
  17      0.000000000173
  18     -0.000000488994
  19      0.000000000114
  20     -0.000000000901
  21     -0.000000002057
  22     -0.000000000030
  23      0.000000489001
  24     -0.000000000099
  25     -0.000000000342
  26      0.000000000732
  27      0.000000002666
  28     -0.000000000862
  29      0.000000002741
  30     -0.000000000469
  31      0.000000001600
  32     -0.000000001021
  33     -0.000000003782
  34     -0.000000000011
  35     -0.000000000123
  36     -0.000000000021
  37      0.000000000043
  38      0.000001574569
  39     -0.000000001589
  40     -0.000000003863
  41     -0.000000000327
  42      0.000000000301
  43      0.000000489080
  44      0.000000000569
  45      0.000000000307
  46      0.000000000178
  47      0.000000000079
  48     -0.000000489745
 Ene=  -0.41566899707241E-01
 Spin= Alpha
 Occup=    0.000000
   1     -0.000000000276
   2      0.000000000798
   3      0.000000000387
   4     -0.000000002591
   5     -0.000000000594
   6     -0.000000000479
   7     -0.000000000704
   8     -0.000000000064
   9     -0.000000000367
  10     -0.000000000057
  11     -0.000000000343
  12     -0.000000000105
  13     -0.000000000031
  14     -0.000001917413
  15      0.000000000142
  16      0.000000000336
  17      0.000000000050
  18     -0.000000663184
  19     -0.000000000152
  20      0.000000000585
  21      0.000000001299
  22     -0.000000000049
  23      0.000000663174
  24      0.000000000089
  25      0.000000000386
  26     -0.000000000762
  27     -0.000000002177
  28     -0.000000002212
  29      0.000000003018
  30      0.000000000508
  31     -0.000000000386
  32      0.000000000245
  33      0.000000003564
  34     -0.000000000156
  35     -0.000000000034
  36      0.000000000104
  37      0.000000000146
  38     -0.000001917584
  39     -0.000000001413
  40     -0.000000003231
  41     -0.000000000360
  42      0.000000000292
  43     -0.000000663115
  44      0.000000001787
  45      0.000000003412
  46     -0.000000000174
  47      0.000000000055
  48      0.000000663566
 Ene=   0.97401179471253E-01
 Spin= Alpha
 Occup=    0.000000
   1      0.000001203287
   2     -0.000002091663
   3     -0.000020715025
   4     -0.000000514283
   5      0.000000000452
   6     -0.000000007059
   7     -0.000000902064
   8     -0.000000000372
   9     -0.000000010676
  10      0.000000106760
  11      0.000000000107
  12     -0.000000000405
  13     -0.000000194528
  14      0.000003475535
  15      0.000000870860
  16      0.000010842910
  17      0.000000043156
  18      0.000002279761
  19      0.000000088216
  20      0.000000871216
  21      0.000010812410
  22      0.000000043754
  23     -0.000002279600
  24     -0.000000088935
  25     -0.000001201968
  26      0.000002088422
  27      0.000020695997
  28     -0.000000511964
  29     -0.000000001992
  30     -0.000000001790
  31     -0.000000894980
  32     -0.000000002784
  33      0.000000016872
  34     -0.000000106827
  35     -0.000000000158
  36     -0.000000000373
  37     -0.000000194474
  38      0.000003474461
  39     -0.000000869693
  40     -0.000010808234
  41      0.000000043491
  42     -0.000000088496
  43      0.000002280191
  44     -0.000000870989
  45     -0.000010818741
  46      0.000000043524
  47      0.000000088400
  48     -0.000002281867
 Ene=   0.10335274165905E+00
 Spin= Alpha
 Occup=    0.000000
   1      0.000002365803
   2     -0.000005629406
   3     -0.000036169593
   4     -0.000004119131
   5      0.000000000333
   6     -0.000000001059
   7     -0.000012960510
   8     -0.000000001829
   9     -0.000000003940
  10     -0.000000140044
  11     -0.000000000067
  12      0.000000000465
  13     -0.000000072838
  14      0.000002022837
  15      0.000000691311
  16      0.000027279440
  17     -0.000000019710
  18      0.000002570396
  19      0.000000167006
  20      0.000000688206
  21      0.000027268149
  22     -0.000000019902
  23     -0.000002570371
  24     -0.000000166716
  25      0.000002364181
  26     -0.000005626497
  27     -0.000036140592
  28      0.000004118690
  29      0.000000004883
  30      0.000000000531
  31      0.000012961312
  32      0.000000009063
  33     -0.000000006066
  34     -0.000000140210
  35     -0.000000000053
  36     -0.000000000017
  37      0.000000073196
  38     -0.000002022860
  39      0.000000687255
  40      0.000027246259
  41      0.000000019766
  42      0.000000166867
  43     -0.000002570775
  44      0.000000689853
  45      0.000027273926
  46      0.000000019908
  47     -0.000000166677
  48      0.000002573110
 Ene=   0.11592909432776E+00
 Spin= Alpha
 Occup=    0.000000
   1     -0.000000000395
   2      0.000000001044
   3      0.000000006752
   4      0.000000000225
   5      0.000000005524
   6      0.000214814235
   7      0.000000002884
   8      0.000000002258
   9      0.000411165810
  10     -0.000000000059
  11      0.000000001344
  12     -0.000003954134
  13      0.000000000122
  14     -0.000000000130
  15     -0.000058214374
  16     -0.000639102572
  17      0.000002046142
  18      0.000000000400
  19      0.000003308589
  20      0.000058214725
  21      0.000639093459
  22     -0.000002046174
  23      0.000000000162
  24      0.000003308914
  25      0.000000000573
  26     -0.000000001366
  27     -0.000000005274
  28      0.000000001531
  29     -0.000000025992
  30     -0.000047043051
  31     -0.000000000974
  32     -0.000000058702
  33      0.000018427409
  34     -0.000000000142
  35     -0.000000000766
  36      0.000007944829
  37     -0.000000000031
  38      0.000000000210
  39      0.000000007857
  40      0.000000086921
  41     -0.000000000222
  42     -0.000000000336
  43      0.000001449174
  44     -0.000000008832
  45     -0.000000077198
  46     -0.000000000080
  47     -0.000000000218
  48      0.000001448759
 Ene=   0.11952754243168E+00
 Spin= Alpha
 Occup=    0.000000
   1     -0.000000000270
   2      0.000000000214
   3      0.000000008932
   4      0.000000000573
   5      0.000000010066
   6     -0.000114198119
   7      0.000000001871
   8     -0.000000061649
   9     -0.000246079863
  10      0.000000000055
  11     -0.000000002852
  12     -0.000001145793
  13     -0.000000000053
  14     -0.000000000148
  15      0.000016614823
  16      0.000338064305
  17     -0.000004064215
  18     -0.000000001074
  19     -0.000000865047
  20     -0.000016615277
  21     -0.000338074074
  22      0.000004064205
  23     -0.000000001430
  24     -0.000000865026
  25     -0.000000000399
  26      0.000000001063
  27      0.000000003168
  28     -0.000000000679
  29      0.000000051943
  30     -0.000021548254
  31     -0.000000003303
  32      0.000000113568
  33      0.000132969448
  34      0.000000000183