
                                 *****************
                                 * O   R   C   A *
                                 *****************

                                            #,                                       
                                            ###                                      
                                            ####                                     
                                            #####                                    
                                            ######                                   
                                           ########,                                 
                                     ,,################,,,,,                         
                               ,,#################################,,                 
                          ,,##########################################,,             
                       ,#########################################, ''#####,          
                    ,#############################################,,   '####,        
                  ,##################################################,,,,####,       
                ,###########''''           ''''###############################       
              ,#####''   ,,,,##########,,,,          '''####'''          '####       
            ,##' ,,,,###########################,,,                        '##       
           ' ,,###''''                  '''############,,,                           
         ,,##''                                '''############,,,,        ,,,,,,###''
      ,#''                                            '''#######################'''  
     '                                                          ''''####''''         
             ,#######,   #######,   ,#######,      ##                                
            ,#'     '#,  ##    ##  ,#'     '#,    #''#        ,####,   ,####,        
            ##       ##  ##   ,#'  ##            #'  '#       #'       #'  '#        
            ##       ##  #######   ##           ,######,      #####,   #    #        
            '#,     ,#'  ##    ##  '#,     ,#' ,#      #,     #,   #   #,  ,#        
             '#######'   ##     ##  '#######'  #'      '#     '####' # '####'        



                #########################################################
                #                        -***-                          #
                #          Department of theory and spectroscopy        #
                #                                                       #
                #                      Frank Neese                      #
                #                                                       #
                #     Directorship, Architecture, Infrastructure        #
                #                    SHARK, DRIVERS                     #
                #        Core code/Algorithms in most modules           #
                #                                                       #
                #        Max Planck Institute fuer Kohlenforschung      #
                #                Kaiser Wilhelm Platz 1                 #
                #                 D-45470 Muelheim/Ruhr                 #
                #                      Germany                          #
                #                                                       #
                #                  All rights reserved                  #
                #                        -***-                          #
                #########################################################


                         Program Version 6.0.1  -  RELEASE   -


 With contributions from (in alphabetic order):
[Max-Planck-Institut fuer Kohlenforschung]                               
  Daniel Aravena         : Magnetic Suceptibility                        
  Michael Atanasov       : Ab Initio Ligand Field Theory (pilot matlab implementation)
  Alexander A. Auer      : GIAO ZORA, VPT2 properties, NMR spectrum      
  Ute Becker             : All parallelization in ORCA, NUMFREQ, NUMCALC 
  Giovanni Bistoni       : ED, misc. LED, open-shell LED, HFLD           
  Martin Brehm           : Molecular dynamics                            
  Dmytro Bykov           : pre 5.0 version of the SCF Hessian            
  Marcos Casanova-Páez   : Triplet and SCS-CIS(D). UHF-(DLPNO)-IP/EA/STEOM-CCSD. UHF-CVS-IP/STEOM-CCSD   
  Vijay G. Chilkuri      : MRCI spin determinant printing, contributions to CSF-ICE 
  Pauline Colinet        : FMM embedding                                 
  Dipayan Datta          : RHF DLPNO-CCSD density                        
  Achintya Kumar Dutta   : EOM-CC, STEOM-CC                              
  Nicolas Foglia         : Exact transition moments, OPA infrastructure, MCD improvements    
  Dmitry Ganyushin       : Spin-Orbit,Spin-Spin,Magnetic field MRCI      
  Miquel Garcia-Rates    : C-PCM and meta-GGA Hessian, CCSD/C-PCM, Gaussian charge scheme 
  Tiago L. C. Gouveia    : GS-ROHF, GS-ROCIS                             
  Yang Guo               : DLPNO-NEVPT2, F12-NEVPT2, CIM, IAO-localization        
  Andreas Hansen         : Spin unrestricted coupled pair/coupled cluster methods 
  Ingolf Harden          : AUTO-CI MPn and infrastructure                
  Benjamin Helmich-Paris : MC-RPA, TRAH-(SCF,CASSCF), AVAS, COSX integrals, SCF dyn. polar. 
  Lee Huntington         : MR-EOM, pCC                                   
  Robert Izsak           : Overlap fitted RIJCOSX, COSX-SCS-MP3, EOM     
  Riya Kayal             : Wick's Theorem for AUTO-CI, AUTO-CI UHF-CCSDT 
  Emily Kempfer          : AUTO-CI, RHF CISDT and CCSDT                  
  Christian Kollmar      : KDIIS, OOCD, Brueckner-CCSD(T), CCSD density, CASPT2, CASPT2-K, improved NEVPT2 
  Axel Koslowski         : Symmetry handling                             
  Simone Kossmann        : meta-GGA functionals, TD-DFT gradient, OOMP2, (MP2 Hessian; deprecated post 5.0) 
  Lucas Lang             : DCDCAS                                        
  Marvin Lechner         : AUTO-CI (C++ implementation), FIC-MRCC        
  Spencer Leger          : CASSCF response                               
  Dagmar Lenk            : GEPOL surface, SMD, ORCA-2-JSON               
  Dimitrios Liakos       : Extrapolation schemes; Compound Job, initial MDCI parallelization 
  Dimitrios Manganas     : Further ROCIS development; embedding schemes. LFT, Crystal Embedding 
  Dimitrios Pantazis     : SARC Basis sets                               
  Anastasios Papadopoulos: AUTO-CI, single reference methods and gradients 
  Taras Petrenko         : pre 6.0 DFT Hessian and TD-DFT gradient, (ASA, deprecated), ECA, 1-Electron XAS/XES, NRVS 
  Peter Pinski           : DLPNO-MP2, DLPNO-MP2 Gradient                 
  Christoph Reimann      : Effective Core Potentials                     
  Marius Retegan         : Local ZFS, SOC                                
  Christoph Riplinger    : Optimizer, TS searches, QM/MM, DLPNO-CCSD(T), (RO)-DLPNO pert. Triples 
  Michael Roemelt        : Original ROCIS implementation                 
  Masaaki Saitow         : Open-shell DLPNO-CCSD energy and density      
  Barbara Sandhoefer     : DKH picture change effects                    
  Kantharuban Sivalingam : CASSCF convergence/infrastructure, NEVPT2 and variants, FIC-MRCI 
  Bernardo de Souza      : ESD, SOC TD-DFT                               
  Georgi L. Stoychev     : AutoAux, RI-MP2 NMR, DLPNO-MP2 response, X2C  
  Van Anh Tran           : RI-MP2 g-tensors                              
  Willem Van den Heuvel  : Paramagnetic NMR                              
  Zikuan Wang            : NOTCH, Electric field optimization            
  Frank Wennmohs         : Technical directorship and infrastructure     
  Hang Xu                : AUTO-CI-Response properties                   
                                                                         
[FACCTs GmbH]                                                            
  Markus Bursch, Miquel Garcia-Rates, Christoph Riplinger, Bernardo de Souza, Georgi L. Stoychev 
                                                                 
  APM, Basis sets (HGBS, AHGBS, def-TZVP (Ac-Lr), def2-XVPD (La-Lu)), CI-OPT, improved COSX, DLPNO-Multilevel,           
  DOCKER, DRACO, updates on ESD, GOAT, IRC, LR-CPCM, MBIS, meta-GGA TD-DFT gradient, ML-optimized integration grids, 
  MM, NACMEs, nearIR, NEB, NEB-TS, NL-DFT gradient (VV10), 2- and 3-layer-ONIOM, interface openCOSMO-RS, QMMM,   
  Crystal-QMMM, SF, symmetry and pop. for TD-DFT, r2SCAN hybrids, SOLVATOR                                   
                                                                         
[Other institutions]                                                     
  V. Asgeirsson          : NEB                                           
  Christoph Bannwarth    : sTDA-DFT, sTD-DFT, PBEh-3c, B97-3c, D3        
  Sebastian Ehlert       : rSCAN, r2SCAN, r2SCAN-3c, D4, dhf basis sets  
  Marvin Friede          : D4 for Fr, Ra, Ac-Lr                          
  Lars Goerigk           : TD-DFT with DH, B97 family of functionals     
  Stefan Grimme          : VdW corrections, initial TS optimization, DFT functionals, gCP, sTDA/sTD-DF 
  Waldemar Hujo          : DFT-NL                                        
  H. Jonsson             : NEB                                           
  Holger Kruse           : gCP                                           
  Marcel Mueller         : wB97X-3c, vDZP basis set                      
  Hagen Neugebauer       : wr2SCAN                                       
  Tobias Risthaus        : range-separated hybrid DFT                    
  Lukas Wittmann         : regularized MP2, r2SCAN double-hybrids, wr2SCAN        
                                                                         
We gratefully acknowledge several colleagues who have allowed us to      
interface, adapt or use parts of their codes:                            
  Ed Valeev, F. Pavosevic, A. Kumar             : LibInt (2-el integral package), F12 methods 
  Garnet Chan, S. Sharma, J. Yang, R. Olivares  : DMRG                   
  Ulf Ekstrom                                   : XCFun DFT Library      
  Mihaly Kallay                                 : mrcc  (arbitrary order and MRCC methods)
  Frank Weinhold                                : gennbo (NPA and NBO analysis)           
  Simon Mueller                                 : openCOSMO-RS                            
  Christopher J. Cramer and Donald G. Truhlar   : smd solvation model                     
  S Lehtola, MJT Oliveira, MAL Marques          : LibXC Library                           
  Liviu Ungur et al                             : ANISO software                          


 Your calculation uses the libint2 library for the computation of 2-el integrals
 For citations please refer to: http://libint.valeyev.net

 Your ORCA version has been built with support for libXC version: 6.2.2
 For citations please refer to: https://libxc.gitlab.io

 This ORCA versions uses:
   CBLAS   interface :  Fast vector & matrix operations
   LAPACKE interface :  Fast linear algebra routines
   SCALAPACK package :  Parallel linear algebra routines
   Shared memory     :  Shared parallel matrices
   BLAS/LAPACK       :  OpenBLAS 0.3.27  USE64BITINT DYNAMIC_ARCH NO_AFFINITY Zen SINGLE_THREADED
        Core in use  :  Zen
   Copyright (c) 2011-2014, The OpenBLAS Project


NOTE: MaxCore=4000 MB was set to SCF,MP2,MDCI,CIPSI,MRCI and CIS
      => If you want to overwrite this, your respective input block should be placed after the MaxCore statement


***************************************
The coordinates will be read from file: /home/lky/Code_TRESC/TRESC/tests/Ni0-C2H4/Ni0-C2H4.xyz
***************************************


Your calculation utilizes the atom-pairwise dispersion correction
with the Becke-Johnson damping scheme (D3BJ)


================================================================================

----- Orbital basis set information -----
Your calculation utilizes the basis: def2-SVP
   F. Weigend and R. Ahlrichs, Phys. Chem. Chem. Phys. 7, 3297 (2005).

================================================================================
                                        WARNINGS
                       Please study these warnings very carefully!
================================================================================


WARNING: Gradients are needed
  ===> : At least TightSCF should be used for SCF convergence

================================================================================
                                       INPUT FILE
================================================================================
NAME = /scratch/orcascr/Ni0-C2H4/Ni0-C2H4.inp
|  1> !uks nousesym opt pbe0 d3 def2-svp nori strongscf noautostart miniprint nopop
|  2> %maxcore 4000
|  3> %pal nprocs 32 end
|  4> * xyzfile 0 1 /home/lky/Code_TRESC/TRESC/tests/Ni0-C2H4/Ni0-C2H4.xyz
|  5> 
|  6>                          ****END OF INPUT****
================================================================================

                       *****************************
                       * Geometry Optimization Run *
                       *****************************

Geometry optimization settings:
Update method            Update   .... BFGS
Choice of coordinates    CoordSys .... (2022) Redundant Internals
Initial Hessian          InHess   .... Almloef's Model
Max. no of cycles        MaxIter  .... 50

Convergence Tolerances:
Energy Change            TolE     ....  5.0000e-06 Eh
Max. Gradient            TolMAXG  ....  3.0000e-04 Eh/bohr
RMS Gradient             TolRMSG  ....  1.0000e-04 Eh/bohr
Max. Displacement        TolMAXD  ....  4.0000e-03 bohr
RMS Displacement         TolRMSD  ....  2.0000e-03 bohr
Strict Convergence                .... False

------------------------------------------------------------------------------
                        ORCA OPTIMIZATION COORDINATE SETUP
------------------------------------------------------------------------------

The optimization will be done in redundant internal coordinates (2022)
Making redundant internal coordinates   ...  (2022 redundants) done
Evaluating the initial hessian          ...  (Almloef) done
Evaluating the coordinates              ...  done
Calculating the B-matrix                .... done
Calculating the G-matrix                .... done
Diagonalizing the G-matrix              .... done
The first mode is                       ....   55
The number of degrees of freedom        ....   15

    -----------------------------------------------------------------
                    Redundant Internal Coordinates


    -----------------------------------------------------------------
         Definition                    Initial Value    Approx d2E/dq
    -----------------------------------------------------------------
      1. B(C   1,Ni  0)                  1.7064         1.977266   
      2. B(C   2,C   1)                  1.3259         0.790643   
      3. B(C   2,Ni  0)                  1.6422         2.502906   
      4. B(H   3,C   1)                  1.0983         0.349329   
      5. B(H   3,Ni  0)                  2.1707         0.068774   
      6. B(H   4,C   1)                  1.0983         0.349333   
      7. B(H   5,Ni  0)                  2.2098         0.059555   
      8. B(H   5,C   2)                  1.0983         0.349329   
      9. B(H   6,C   2)                  1.0983         0.349333   
     10. B(H   6,Ni  0)                  2.0748         0.097823   
     11. A(H   3,Ni  0,H   5)           90.8114         0.224454   
     12. A(H   3,Ni  0,H   6)           72.5527         0.240556   
     13. A(C   1,Ni  0,H   3)           29.9716         0.418971   
     14. A(C   2,Ni  0,H   6)           31.7395         0.465947   
     15. A(C   1,Ni  0,H   6)           67.7772         0.446362   
     16. A(C   2,Ni  0,H   5)           28.5736         0.425899   
     17. A(C   1,Ni  0,C   2)           46.6026         0.909698   
     18. A(H   5,Ni  0,H   6)           50.9841         0.235698   
     19. A(C   2,Ni  0,H   3)           66.2589         0.437055   
     20. A(C   1,Ni  0,H   5)           64.4154         0.408395   
     21. A(C   2,C   1,H   3)          122.7159         0.365929   
     22. A(Ni  0,C   1,H   3)           99.1149         0.482571   
     23. A(H   3,C   1,H   4)          114.5661         0.288084   
     24. A(C   2,C   1,H   4)          122.7180         0.365929   
     25. A(Ni  0,C   1,H   4)          108.2324         0.482573   
     26. A(Ni  0,C   1,C   2)           64.1511         0.636464   
     27. A(Ni  0,C   2,H   5)          105.7685         0.504141   
     28. A(H   5,C   2,H   6)          114.5661         0.288084   
     29. A(Ni  0,C   2,C   1)           69.2463         0.666468   
     30. A(C   1,C   2,H   6)          122.7180         0.365929   
     31. A(Ni  0,C   2,H   6)           96.3904         0.504142   
     32. A(C   1,C   2,H   5)          122.7159         0.365929   
     33. A(Ni  0,H   3,C   1)           50.9135         0.255912   
     34. A(Ni  0,H   5,C   2)           45.6579         0.250562   
     35. A(Ni  0,H   6,C   2)           51.8701         0.269768   
     36. D(C   2,C   1,Ni  0,H   5)     27.4638         0.020956   
     37. D(H   3,C   1,Ni  0,H   6)     93.4469         0.020956   
     38. D(C   2,C   1,Ni  0,H   3)   -122.0402         0.020956   
     39. D(H   3,C   1,Ni  0,C   2)    122.0402         0.020956   
     40. D(H   4,C   1,Ni  0,C   2)   -118.2131         0.020956   
     41. D(C   2,C   1,Ni  0,H   6)    -28.5933         0.020956   
     42. D(H   3,C   1,Ni  0,H   5)    149.5040         0.020956   
     43. D(H   6,C   2,Ni  0,C   1)   -122.6281         0.033542   
     44. D(H   5,C   2,Ni  0,H   6)   -117.7961         0.033542   
     45. D(H   5,C   2,Ni  0,H   3)    147.1324         0.033542   
     46. D(H   5,C   2,Ni  0,C   1)    119.5758         0.033542   
     47. D(H   6,C   2,C   1,Ni  0)     84.1473         0.052821   
     48. D(Ni  0,C   2,C   1,H   3)    -84.1457         0.052821   
     49. D(C   1,C   2,Ni  0,H   5)   -119.5758         0.033542   
     50. D(H   5,C   2,C   1,Ni  0)    -95.8531         0.052821   
     51. D(C   1,C   2,Ni  0,H   3)     27.5566         0.033542   
     52. D(H   5,C   2,C   1,H   3)   -179.9988         0.052821   
     53. D(H   5,C   2,C   1,H   4)     -0.0002         0.052821   
     54. D(Ni  0,C   2,C   1,H   4)     95.8530         0.052821   
     55. D(C   1,C   2,Ni  0,H   6)    122.6281         0.033542   
     56. D(Ni  0,H   3,C   1,H   4)   -114.9452         0.112830   
     57. D(Ni  0,H   3,C   1,C   2)     65.0536         0.112830   
     58. D(C   1,H   3,Ni  0,H   6)    -75.6057         0.001619   
     59. D(C   1,H   3,Ni  0,H   5)    -27.2430         0.001619   
     60. D(C   1,H   3,Ni  0,C   2)    -42.2888         0.001619   
     61. D(Ni  0,H   5,C   2,H   6)   -104.8474         0.112830   
     62. D(Ni  0,H   5,C   2,C   1)     75.1530         0.112830   
     63. D(C   2,H   5,Ni  0,H   6)     36.7939         0.001589   
     64. D(C   2,H   5,Ni  0,H   3)    -29.7900         0.001589   
     65. D(C   2,H   5,Ni  0,C   1)    -44.4775         0.001589   
     66. D(C   2,H   6,Ni  0,C   1)     41.3793         0.001738   
     67. D(Ni  0,H   6,C   2,H   5)    110.6013         0.112833   
     68. D(Ni  0,H   6,C   2,C   1)    -69.3991         0.112833   
     69. D(C   2,H   6,Ni  0,H   5)    -32.9938         0.001738   
     70. D(C   2,H   6,Ni  0,H   3)     72.8939         0.001738   
    -----------------------------------------------------------------

Number of atoms                         .... 7
Number of degrees of freedom            .... 70


         *************************************************************
         *                GEOMETRY OPTIMIZATION CYCLE   1            *
         *************************************************************
---------------------------------
CARTESIAN COORDINATES (ANGSTROEM)
---------------------------------
  Ni     1.374046    3.417049   -0.249007
  C      2.497492    2.506766    0.657117
  C      2.672897    2.498707   -0.657121
  H      2.887348    3.304819    1.303115
  H      1.950575    1.715961    1.187862
  H      2.283025    1.700664   -1.303121
  H      3.219817    3.289510   -1.187866

----------------------------
CARTESIAN COORDINATES (A.U.)
----------------------------
  NO LB      ZA    FRAG     MASS         X           Y           Z
   0 Ni   28.0000    0    58.700    2.596571    6.457288   -0.470555
   1 C     6.0000    0    12.011    4.719576    4.737102    1.241771
   2 C     6.0000    0    12.011    5.051043    4.721873   -1.241779
   3 H     1.0000    0     1.008    5.456297    6.245203    2.462530
   4 H     1.0000    0     1.008    3.686053    3.242697    2.244735
   5 H     1.0000    0     1.008    4.314292    3.213790   -2.462542
   6 H     1.0000    0     1.008    6.084573    6.216274   -2.244742



           ************************************************************
           *        Program running with 32 parallel MPI-processes    *
           *              working on a common directory               *
           ************************************************************
------------------------------------------------------------------------------
                   ___                                                        
                  /   \      - P O W E R E D   B Y -                         
                 /     \                                                     
                 |  |  |   _    _      __       _____    __    __             
                 |  |  |  | |  | |    /  \     |  _  \  |  |  /  |          
                  \  \/   | |  | |   /    \    | | | |  |  | /  /          
                 / \  \   | |__| |  /  /\  \   | |_| |  |  |/  /          
                |  |  |   |  __  | /  /__\  \  |    /   |      \           
                |  |  |   | |  | | |   __   |  |    \   |  |\   \          
                \     /   | |  | | |  |  |  |  | |\  \  |  | \   \       
                 \___/    |_|  |_| |__|  |__|  |_| \__\ |__|  \__/        
                                                                              
                      - O R C A' S   B I G   F R I E N D -                    
                                      &                                       
                       - I N T E G R A L  F E E D E R -                       
                                                                              
 v1 FN, 2020, v2 2021, v3 2022-2024                                           
------------------------------------------------------------------------------


----------------------
SHARK INTEGRAL PACKAGE
----------------------

Number of atoms                             ...      7
Number of basis functions                   ...     79
Number of shells                            ...     35
Maximum angular momentum                    ...      3
Integral batch strategy                     ... SHARK/LIBINT Hybrid
RI-J (if used) integral strategy            ... SPLIT-RIJ (Revised 2003 algorithm where possible)
Printlevel                                  ...      1
Contraction scheme used                     ... SEGMENTED contraction
Prescreening option                         ... SCHWARTZ
   Thresh                                   ... 1.000e-10
   Tcut                                     ... 3.000e-11
   Tpresel                                  ... 3.000e-11 
Coulomb Range Separation                    ... NOT USED
Exchange Range Separation                   ... NOT USED
Multipole approximations                    ... NOT USED
Finite Nucleus Model                        ... NOT USED
CABS basis                                  ... NOT available
Auxiliary Coulomb fitting basis             ... NOT available
Auxiliary J/K fitting basis                 ... NOT available
Auxiliary Correlation fitting basis         ... NOT available
Auxiliary 'external' fitting basis          ... NOT available

Checking pre-screening integrals            ... done (  0.0 sec) Dimension = 35
Check shell pair data                       ... done (  0.0 sec)
Shell pair information
Shell pair cut-off parameter TPreSel        ...   3.0e-11
Total number of shell pairs                 ...       630
Shell pairs after pre-screening             ...       624
Total number of primitive shell pairs       ...      2779
Primitive shell pairs kept                  ...      2302
          la=0 lb=0:    186 shell pairs
          la=1 lb=0:    207 shell pairs
          la=1 lb=1:     66 shell pairs
          la=2 lb=0:     76 shell pairs
          la=2 lb=1:     44 shell pairs
          la=2 lb=2:     10 shell pairs
          la=3 lb=0:     19 shell pairs
          la=3 lb=1:     11 shell pairs
          la=3 lb=2:      4 shell pairs
          la=3 lb=3:      1 shell pairs

Calculating one electron integrals          ... done (  0.0 sec)
Calculating Nuclear repulsion               ... done (  0.0 sec) ENN=    166.574378700097 Eh

Diagonalization of the overlap matrix:
Smallest eigenvalue                        ... 1.822e-03
Time for diagonalization                   ...    0.001 sec
Threshold for overlap eigenvalues          ... 1.000e-07
Number of eigenvalues below threshold      ... 0
Time for construction of square roots      ...    0.000 sec
Total time needed                          ...    0.002 sec

-------------------
DFT GRID GENERATION
-------------------

General Integration Accuracy     IntAcc      ... 4.388
Radial Grid Type                 RadialGrid  ... OptM3 with GC (2021)
Angular Grid (max. ang.)         AngularGrid ... 4 (Lebedev-302)
Angular grid pruning method      GridPruning ... 4 (adaptive)
Weight generation scheme         WeightScheme... mBecke (2022)
Basis function cutoff            BFCut       ... 3.0000e-11
Integration weight cutoff        WCut        ... 1.0000e-14
Partially contracted basis set               ... off
Rotationally invariant grid construction     ... off
Angular grids for H and He will be reduced by one unit
Core-polarized basis detected: some atoms will have their core
                               angular grid increased.

Total number of grid points                  ...    36325
Total number of batches                      ...      571
Average number of points per batch           ...       63
Average number of grid points per atom       ...     5189
Initializing property integral containers    ... done (  0.0 sec)

SHARK setup successfully completed in   0.3 seconds

Maximum memory used throughout the entire STARTUP-calculation: 12.4 MB


           ************************************************************
           *        Program running with 32 parallel MPI-processes    *
           *              working on a common directory               *
           ************************************************************
Loading Hartree-Fock densities                     ... done
Calculating cut-offs                               ... done
Initializing the effective Hamiltonian             ... done
Setting up the integral package (SHARK)            ... done
Starting the Coulomb interaction                   ... done (   0.0 sec)
Making the grid                                    ... done (   0.1 sec)
Mapping shells                                     ... done
Starting the XC term evaluation                    ... done (   0.0 sec)
  promolecular density results
     # of electrons  =     43.998052658
     EX              =    -73.085553975
     EC              =     -1.813606092
     EX+EC           =    -74.899160066
Transforming the Hamiltonian                       ... done (   0.0 sec)
Diagonalizing the Hamiltonian                      ... done (   0.0 sec)
Back transforming the eigenvectors                 ... done (   0.0 sec)
Now organizing SCF variables                       ... done
             **** ENERGY FILE WAS UPDATED (/scratch/orcascr/Ni0-C2H4/Ni0-C2H4.en.tmp) ****
Finished Guess after   0.2 sec
Maximum memory used throughout the entire GUESS-calculation: 6.4 MB


           ************************************************************
           *        Program running with 32 parallel MPI-processes    *
           *              working on a common directory               *
           ************************************************************
----------------------------------------D-I-I-S--------------------------------------------
Iteration    Energy (Eh)           Delta-E    RMSDP     MaxDP     DIISErr   Damp  Time(sec)
-------------------------------------------------------------------------------------------
               ***  Starting incremental Fock matrix formation  ***
    1    -1585.9451608336428308     0.00e+00  9.91e-03  2.52e-01  1.43e-01  0.700   0.1
Warning: op=0 Small HOMO/LUMO gap (   0.093) - skipping pre-diagonalization
         Will do a full diagonalization
    2    -1586.0684227751910385    -1.23e-01  3.05e-03  4.43e-02  5.64e-02  0.700   0.1
                               ***Turning on AO-DIIS***
    3    -1586.1162860647862090    -4.79e-02  1.13e-03  2.08e-02  1.91e-02  0.700   0.1
    4    -1586.1448199166654831    -2.85e-02  2.34e-03  4.80e-02  7.71e-03  0.000   0.1
    5    -1586.2101567273571163    -6.53e-02  6.01e-04  9.07e-03  4.34e-03  0.000   0.1
                              *** Initializing SOSCF ***
---------------------------------------S-O-S-C-F--------------------------------------
Iteration    Energy (Eh)           Delta-E    RMSDP     MaxDP     MaxGrad    Time(sec)
--------------------------------------------------------------------------------------
    6    -1586.2107705610478661    -6.14e-04  3.77e-04  6.18e-03  1.52e-03     0.1
               *** Restarting incremental Fock matrix formation ***
    7    -1586.2108590983514205    -8.85e-05  4.07e-04  6.75e-03  1.97e-03     0.1
    8    -1586.2105282429565705     3.31e-04  4.09e-04  7.01e-03  7.87e-03     0.1
    9    -1586.2109488078638151    -4.21e-04  9.38e-05  1.68e-03  3.83e-04     0.1
   10    -1586.2109542844505086    -5.48e-06  7.35e-05  1.51e-03  3.50e-04     0.1
   11    -1586.2109571040541596    -2.82e-06  1.42e-05  1.76e-04  1.05e-04     0.1
   12    -1586.2109573255193027    -2.21e-07  5.36e-06  1.13e-04  1.73e-05     0.1
                 **** Energy Check signals convergence ****

               *****************************************************
               *                     SUCCESS                       *
               *           SCF CONVERGED AFTER  12 CYCLES          *
               *****************************************************

             **** ENERGY FILE WAS UPDATED (/scratch/orcascr/Ni0-C2H4/Ni0-C2H4.en.tmp) ****

----------------
TOTAL SCF ENERGY
----------------

Total Energy       :      -1586.21095732551930 Eh          -43162.99451 eV

Components:
Nuclear Repulsion  :        166.57437870009707 Eh            4532.71928 eV
Electronic Energy  :      -1752.78533602561629 Eh          -47695.71380 eV
One Electron Energy:      -2534.98545289497633 Eh          -68980.46107 eV
Two Electron Energy:        782.20011686936016 Eh           21284.74728 eV

Virial components:
Potential Energy   :      -3170.74918098437138 Eh          -86280.47163 eV
Kinetic Energy     :       1584.53822365885208 Eh           43117.47712 eV
Virial Ratio       :          2.00105566002870

DFT components:
N(Alpha)           :       22.000005418320 electrons
N(Beta)            :       22.000005418319 electrons
N(Total)           :       44.000010836639 electrons
E(X)               :      -55.192850993751 Eh       
E(C)               :       -1.838621165616 Eh       
E(XC)              :      -57.031472159367 Eh       

---------------
SCF CONVERGENCE
---------------

  Last Energy change         ...    2.2147e-07  Tolerance :   3.0000e-07
  Last MAX-Density change    ...    1.1255e-04  Tolerance :   3.0000e-06
  Last RMS-Density change    ...    5.3632e-06  Tolerance :   1.0000e-07
  Last DIIS Error            ...    1.5165e-03  Tolerance :   3.0000e-06
  Last Orbital Gradient      ...    1.7326e-05  Tolerance :   2.0000e-05
  Last Orbital Rotation      ...    1.1003e-04  Tolerance :   2.0000e-05


----------------------
UHF SPIN CONTAMINATION
----------------------

Warning: in a DFT calculation there is little theoretical justification to 
         calculate <S**2> as in Hartree-Fock theory. We will do it anyways
         but you should keep in mind that the values have only limited relevance

Expectation value of <S**2>     :     0.000000
Ideal value S*(S+1) for S=0.0   :     0.000000
Deviation                       :     0.000000

----------------
ORBITAL ENERGIES
----------------
                 SPIN UP ORBITALS
  NO   OCC          E(Eh)            E(eV) 
   0   1.0000    -300.020158     -8163.9635 
   1   1.0000     -35.770855      -973.3745 
   2   1.0000     -31.176652      -848.3598 
   3   1.0000     -31.166954      -848.0959 
   4   1.0000     -31.164159      -848.0199 
   5   1.0000     -10.204779      -277.6861 
   6   1.0000     -10.202963      -277.6367 
   7   1.0000      -3.958097      -107.7053 
   8   1.0000      -2.560806       -69.6831 
   9   1.0000      -2.528546       -68.8052 
  10   1.0000      -2.518279       -68.5258 
  11   1.0000      -0.794608       -21.6224 
  12   1.0000      -0.589952       -16.0534 
  13   1.0000      -0.485314       -13.2061 
  14   1.0000      -0.449882       -12.2419 
  15   1.0000      -0.357763        -9.7352 
  16   1.0000      -0.325853        -8.8669 
  17   1.0000      -0.235412        -6.4059 
  18   1.0000      -0.198865        -5.4114 
  19   1.0000      -0.189493        -5.1564 
  20   1.0000      -0.178678        -4.8621 
  21   1.0000      -0.170516        -4.6400 
  22   0.0000      -0.036493        -0.9930 
  23   0.0000       0.024030         0.6539 
  24   0.0000       0.100015         2.7215 
  25   0.0000       0.113096         3.0775 
  26   0.0000       0.138139         3.7590 
  27   0.0000       0.145816         3.9679 
  28   0.0000       0.174167         4.7393 
  29   0.0000       0.203594         5.5401 
  30   0.0000       0.258116         7.0237 
  31   0.0000       0.342074         9.3083 
  32   0.0000       0.363240         9.8843 

                 SPIN DOWN ORBITALS
  NO   OCC          E(Eh)            E(eV) 
   0   1.0000    -300.020158     -8163.9635 
   1   1.0000     -35.770855      -973.3745 
   2   1.0000     -31.176652      -848.3598 
   3   1.0000     -31.166954      -848.0959 
   4   1.0000     -31.164159      -848.0199 
   5   1.0000     -10.204779      -277.6861 
   6   1.0000     -10.202963      -277.6367 
   7   1.0000      -3.958097      -107.7053 
   8   1.0000      -2.560806       -69.6831 
   9   1.0000      -2.528546       -68.8052 
  10   1.0000      -2.518279       -68.5258 
  11   1.0000      -0.794608       -21.6224 
  12   1.0000      -0.589952       -16.0534 
  13   1.0000      -0.485314       -13.2061 
  14   1.0000      -0.449882       -12.2419 
  15   1.0000      -0.357763        -9.7352 
  16   1.0000      -0.325853        -8.8669 
  17   1.0000      -0.235412        -6.4059 
  18   1.0000      -0.198865        -5.4114 
  19   1.0000      -0.189493        -5.1564 
  20   1.0000      -0.178678        -4.8621 
  21   1.0000      -0.170516        -4.6400 
  22   0.0000      -0.036493        -0.9930 
  23   0.0000       0.024030         0.6539 
  24   0.0000       0.100015         2.7215 
  25   0.0000       0.113096         3.0775 
  26   0.0000       0.138139         3.7590 
  27   0.0000       0.145816         3.9679 
  28   0.0000       0.174167         4.7393 
  29   0.0000       0.203594         5.5401 
  30   0.0000       0.258116         7.0237 
  31   0.0000       0.342074         9.3083 
  32   0.0000       0.363240         9.8843 
*Only the first 10 virtual orbitals were printed.
Total SCF time: 0 days 0 hours 0 min 1 sec 
Finished LeanSCF after   1.1 sec

Maximum memory used throughout the entire LEANSCF-calculation: 12.2 MB


-------------------------------------------------------------------------------
                          DFT DISPERSION CORRECTION                            
                                                                               
                              DFTD3 V3.1  Rev 1                                
                          USING Becke-Johnson damping                          
-------------------------------------------------------------------------------
-------------------------   ----------------
Dispersion correction           -0.003705195
-------------------------   ----------------


-------------------------   --------------------
FINAL SINGLE POINT ENERGY     -1586.214662520036
-------------------------   --------------------



           ************************************************************
           *        Program running with 32 parallel MPI-processes    *
           *              working on a common directory               *
           ************************************************************
------------------------------------------------------------------------------
                         ORCA SCF GRADIENT CALCULATION
------------------------------------------------------------------------------

Nuc. rep. gradient        (SHARK) ... done (  0.0 sec)
HCore & Overlap gradient  (SHARK) ... done (  0.0 sec)
Two-electron gradient     (SHARK) ... done (  0.3 sec)
XC gradient                       ... done (  0.1 sec)
Dispersion correction             ... done (  0.0 sec)

-------------------
DISPERSION GRADIENT
-------------------

   1   Ni  :   -0.000026193    0.000022849   -0.000007864
   2   C   :   -0.000000041   -0.000001368    0.000015275
   3   C   :    0.000003653   -0.000001357   -0.000014398
   4   H   :    0.000011194    0.000013480    0.000039476
   5   H   :   -0.000008816   -0.000023914    0.000038813
   6   H   :    0.000000663   -0.000022809   -0.000037540
   7   H   :    0.000019540    0.000013119   -0.000033762

Difference to translation invariance:
           :    0.0000000000    0.0000000000   -0.0000000000

Difference to rotation invariance:
           :    0.0000000000    0.0000000000   -0.0000000000

Norm of the Dispersion gradient    ...    0.0000968137
RMS gradient                       ...    0.0000211265
MAX gradient                       ...    0.0000394761

------------------
CARTESIAN GRADIENT
------------------

   1   Ni  :    0.134888326   -0.094401020    0.008946663
   2   C   :   -0.008461987    0.019942163   -0.122565331
   3   C   :   -0.067406934    0.042153616    0.118856802
   4   H   :   -0.015409518    0.007599250   -0.005284578
   5   H   :   -0.011090814    0.007623593   -0.003627071
   6   H   :   -0.012892252    0.010442213    0.001472928
   7   H   :   -0.019626822    0.006640185    0.002200587

Difference to translation invariance:
           :    0.0000000001    0.0000000001   -0.0000000000

Difference to rotation invariance:
           :   -0.0000036194    0.0000213016   -0.0000645288

Norm of the Cartesian gradient     ...    0.2536819826
RMS gradient                       ...    0.0553579470
MAX gradient                       ...    0.1348883260

-------
TIMINGS
-------

Total SCF gradient time     ....        0.468 sec

Densities                   ....       0.000 sec  (  0.1%)
One electron gradient       ....       0.019 sec  (  4.1%)
Two electron gradient       ....       0.337 sec  ( 72.1%)
XC gradient                 ....       0.072 sec  ( 15.4%)

Maximum memory used throughout the entire SCFGRAD-calculation: 26.6 MB
------------------------------------------------------------------------------
                         ORCA GEOMETRY RELAXATION STEP
------------------------------------------------------------------------------

Reading the OPT-File                    .... done
Getting information on internals        .... done
Copying old internal coords+grads       .... done
Making the new internal coordinates     .... (2022 redundants) done
Validating the new internal coordinates .... (2022 redundants) done
Calculating the B-matrix                .... done
Calculating the G,G- and P matrices     .... done
Transforming gradient to internals      .... done
Projecting the internal gradient        .... done
Number of atoms                         ....   7
Number of internal coordinates          ....  70
Current Energy                          .... -1586.214662520 Eh
Current gradient norm                   ....     0.253681983 Eh/bohr
Maximum allowed component of the step   ....  0.300
Current trust radius                    ....  0.300
Evaluating the initial hessian          ....  (Almloef) done
Projecting the Hessian                  .... done
Forming the augmented Hessian           .... done
Diagonalizing the augmented Hessian     .... done
Last element of RFO vector              ....  0.976473711
Lowest eigenvalues of augmented Hessian:
 -0.018795081  0.067626291  0.090842250  0.103983493  0.124948668
Length of the computed step             ....  0.220831834
The final length of the internal step   ....  0.220831834
Converting the step to Cartesian space:
 Initial RMS(Int)=    0.0263944526
Transforming coordinates:
 Iter   0:  RMS(Cart)=    0.0286129731 RMS(Int)=    0.7460453063
done
Storing new coordinates                 .... done

                                .--------------------.
          ----------------------|Geometry convergence|-------------------------
          Item                value                   Tolerance       Converged
          ---------------------------------------------------------------------
          RMS gradient        0.0144865081            0.0001000000      NO
          MAX gradient        0.0639907071            0.0003000000      NO
          RMS step            0.0263944526            0.0020000000      NO
          MAX step            0.0906303433            0.0040000000      NO
          ........................................................
          Max(Bonds)      0.0480      Max(Angles)    1.88
          Max(Dihed)        3.13      Max(Improp)    0.00
          ---------------------------------------------------------------------

The optimization has not yet converged - more geometry cycles are needed


    ---------------------------------------------------------------------------
                         Redundant Internal Coordinates
                            (Angstroem and degrees)

        Definition                    Value    dE/dq     Step     New-Value
    ----------------------------------------------------------------------------
     1. B(C   1,Ni  0)                1.7064 -0.053758  0.0203    1.7267   
     2. B(C   2,C   1)                1.3259 -0.063991  0.0480    1.3739   
     3. B(C   2,Ni  0)                1.6422 -0.047987  0.0210    1.6633   
     4. B(H   3,C   1)                1.0983  0.011278 -0.0003    1.0980   
     5. B(H   3,Ni  0)                2.1707 -0.034309  0.0382    2.2089   
     6. B(H   4,C   1)                1.0983 -0.001720  0.0025    1.1007   
     7. B(H   5,Ni  0)                2.2098 -0.033695  0.0354    2.2452   
     8. B(H   5,C   2)                1.0983  0.011263  0.0018    1.1000   
     9. B(H   6,C   2)                1.0983  0.007030  0.0022    1.1005   
    10. B(H   6,Ni  0)                2.0748 -0.032312  0.0399    2.1147   
    11. A(H   3,Ni  0,H   5)           90.81  0.006878   -0.50     90.31   
    12. A(H   3,Ni  0,H   6)           72.55 -0.000817   -0.26     72.29   
    13. A(C   1,Ni  0,H   3)           29.97  0.007661   -0.72     29.25   
    14. A(C   2,Ni  0,H   6)           31.74  0.007017   -0.71     31.03   
    15. A(C   1,Ni  0,H   6)           67.78 -0.000966    0.20     67.98   
    16. A(C   2,Ni  0,H   5)           28.57  0.007290   -0.63     27.95   
    17. A(C   1,Ni  0,C   2)           46.60 -0.008114    1.18     47.78   
    18. A(H   5,Ni  0,H   6)           50.98  0.011067   -0.76     50.22   
    19. A(C   2,Ni  0,H   3)           66.26 -0.000996    0.22     66.48   
    20. A(C   1,Ni  0,H   5)           64.42 -0.002091    0.51     64.92   
    21. A(C   2,C   1,H   3)          122.72  0.003267   -0.25    122.46   
    22. A(Ni  0,C   1,H   3)           99.11  0.003196    1.40    100.51   
    23. A(H   3,C   1,H   4)          114.57 -0.001040    0.31    114.88   
    24. A(C   2,C   1,H   4)          122.72 -0.002227   -0.06    122.66   
    25. A(Ni  0,C   1,H   4)          108.23 -0.006922    1.88    110.11   
    26. A(Ni  0,C   1,C   2)           64.15  0.004961   -0.46     63.69   
    27. A(Ni  0,C   2,H   5)          105.77  0.000387    1.14    106.91   
    28. A(H   5,C   2,H   6)          114.57 -0.003127    0.30    114.87   
    29. A(Ni  0,C   2,C   1)           69.25  0.003154   -0.72     68.52   
    30. A(C   1,C   2,H   6)          122.72  0.003608   -0.41    122.31   
    31. A(Ni  0,C   2,H   6)           96.39  0.002547    1.37     97.76   
    32. A(C   1,C   2,H   5)          122.72 -0.000482    0.10    122.82   
    33. A(Ni  0,H   3,C   1)           50.91 -0.010858   -0.68     50.23   
    34. A(Ni  0,H   5,C   2)           45.66 -0.007678   -0.52     45.14   
    35. A(Ni  0,H   6,C   2)           51.87 -0.009563   -0.67     51.21   
    36. D(C   2,C   1,Ni  0,H   5)     27.46  0.007560   -0.64     26.83   
    37. D(H   3,C   1,Ni  0,H   6)     93.45 -0.003923   -0.53     92.92   
    38. D(C   2,C   1,Ni  0,H   3)   -122.04 -0.001578    0.89   -121.15   
    39. D(H   3,C   1,Ni  0,C   2)    122.04  0.001578   -0.89    121.15   
    40. D(H   4,C   1,Ni  0,C   2)   -118.21 -0.000660    0.82   -117.39   
    41. D(C   2,C   1,Ni  0,H   6)    -28.59 -0.005501    0.36    -28.23   
    42. D(H   3,C   1,Ni  0,H   5)    149.50  0.009138   -1.53    147.98   
    43. D(H   6,C   2,Ni  0,C   1)   -122.63 -0.002570    0.87   -121.75   
    44. D(H   5,C   2,Ni  0,H   6)   -117.80  0.002291   -1.16   -118.96   
    45. D(H   5,C   2,Ni  0,H   3)    147.13  0.006367   -0.70    146.44   
    46. D(H   5,C   2,Ni  0,C   1)    119.58 -0.000279   -0.29    119.29   
    47. D(H   6,C   2,C   1,Ni  0)     84.15  0.003781    1.43     85.57   
    48. D(Ni  0,C   2,C   1,H   3)    -84.15 -0.005834   -1.66    -85.80   
    49. D(C   1,C   2,Ni  0,H   5)   -119.58  0.000279    0.29   -119.29   
    50. D(H   5,C   2,C   1,Ni  0)    -95.85 -0.002542   -0.93    -96.79   
    51. D(C   1,C   2,Ni  0,H   3)     27.56  0.006646   -0.41     27.15   
    52. D(H   5,C   2,C   1,H   3)   -180.00 -0.008376   -2.59   -182.59   
    53. D(H   5,C   2,C   1,H   4)     -0.00 -0.007375    1.19      1.19   
    54. D(Ni  0,C   2,C   1,H   4)     95.85 -0.004833    2.13     97.98   
    55. D(C   1,C   2,Ni  0,H   6)    122.63  0.002570   -0.87    121.75   
    56. D(Ni  0,H   3,C   1,H   4)   -114.95  0.006629   -3.13   -118.07   
    57. D(Ni  0,H   3,C   1,C   2)     65.05  0.007555    0.37     65.43   
    58. D(C   1,H   3,Ni  0,H   6)    -75.61 -0.000384   -0.77    -76.37   
    59. D(C   1,H   3,Ni  0,H   5)    -27.24  0.008454   -1.46    -28.70   
    60. D(C   1,H   3,Ni  0,C   2)    -42.29  0.007479   -1.43    -43.72   
    61. D(Ni  0,H   5,C   2,H   6)   -104.85 -0.001912   -2.36   -107.21   
    62. D(Ni  0,H   5,C   2,C   1)     75.15  0.003938   -0.18     74.97   
    63. D(C   2,H   5,Ni  0,H   6)     36.79  0.002681   -0.85     35.94   
    64. D(C   2,H   5,Ni  0,H   3)    -29.79  0.005836   -0.67    -30.46   
    65. D(C   2,H   5,Ni  0,C   1)    -44.48  0.006395   -1.02    -45.50   
    66. D(C   2,H   6,Ni  0,C   1)     41.38 -0.007861    1.40     42.78   
    67. D(Ni  0,H   6,C   2,H   5)    110.60  0.000880    2.12    112.72   
    68. D(Ni  0,H   6,C   2,C   1)    -69.40 -0.004969   -0.07    -69.47   
    69. D(C   2,H   6,Ni  0,H   5)    -32.99 -0.003654    0.74    -32.25   
    70. D(C   2,H   6,Ni  0,H   3)     72.89  0.000587    0.71     73.60   
    ----------------------------------------------------------------------------

Geometry step timings:
Preparation and reading OPT file:      0.000 s (10.738 %)
Internal coordinates            :      0.000 s ( 1.680 %)
B/P matrices and projection     :      0.000 s (19.136 %)
Hessian update/contruction      :      0.000 s (14.277 %)
Making the step                 :      0.000 s (19.796 %)
Converting the step to Cartesian:      0.000 s ( 3.479 %)
Storing new data                :      0.000 s ( 1.560 %)
Checking convergence            :      0.000 s ( 0.120 %)
Final printing                  :      0.000 s (29.034 %)
Total time                      :      0.002 s

Time for energy+gradient        :      3.061 s
Time for complete geometry iter :      3.336 s

         *************************************************************
         *                GEOMETRY OPTIMIZATION CYCLE   2            *
         *************************************************************
---------------------------------
CARTESIAN COORDINATES (ANGSTROEM)
---------------------------------
  Ni     1.354128    3.430294   -0.254122
  C      2.481262    2.514282    0.679712
  C      2.666684    2.502207   -0.681552
  H      2.894500    3.301782    1.323728
  H      1.960224    1.705779    1.214930
  H      2.290836    1.694847   -1.327268
  H      3.237567    3.284287   -1.204449

----------------------------
CARTESIAN COORDINATES (A.U.)
----------------------------
  NO LB      ZA    FRAG     MASS         X           Y           Z
   0 Ni   28.0000    0    58.700    2.558932    6.482317   -0.480221
   1 C     6.0000    0    12.011    4.688905    4.751305    1.284469
   2 C     6.0000    0    12.011    5.039302    4.728487   -1.287948
   3 H     1.0000    0     1.008    5.469812    6.239463    2.501484
   4 H     1.0000    0     1.008    3.704286    3.223454    2.295884
   5 H     1.0000    0     1.008    4.329053    3.202797   -2.508173
   6 H     1.0000    0     1.008    6.118115    6.206403   -2.276078

--------------------------------
INTERNAL COORDINATES (ANGSTROEM)
--------------------------------
 Ni     0   0   0     0.000000000000     0.00000000     0.00000000
 C      1   0   0     1.726717361063     0.00000000     0.00000000
 C      2   1   0     1.373887599905    63.69910270     0.00000000
 H      2   1   3     1.098033717355   100.50928965   121.14025884
 H      2   1   3     1.100734923130   110.09822493   242.63802773
 H      3   2   1     1.100018206958   122.81641574   263.21630191
 H      3   2   1     1.100443798581   122.31481258    85.57157918

---------------------------
INTERNAL COORDINATES (A.U.)
---------------------------
 Ni     0   0   0     0.000000000000     0.00000000     0.00000000
 C      1   0   0     3.263022923095     0.00000000     0.00000000
 C      2   1   0     2.596271302611    63.69910270     0.00000000
 H      2   1   3     2.074983011612   100.50928965   121.14025884
 H      2   1   3     2.080087550759   110.09822493   242.63802773
 H      3   2   1     2.078733153477   122.81641574   263.21630191
 H      3   2   1     2.079537405090   122.31481258    85.57157918



           ************************************************************
           *        Program running with 32 parallel MPI-processes    *
           *              working on a common directory               *
           ************************************************************
------------------------------------------------------------------------------
                   ___                                                        
                  /   \      - P O W E R E D   B Y -                         
                 /     \                                                     
                 |  |  |   _    _      __       _____    __    __             
                 |  |  |  | |  | |    /  \     |  _  \  |  |  /  |          
                  \  \/   | |  | |   /    \    | | | |  |  | /  /          
                 / \  \   | |__| |  /  /\  \   | |_| |  |  |/  /          
                |  |  |   |  __  | /  /__\  \  |    /   |      \           
                |  |  |   | |  | | |   __   |  |    \   |  |\   \          
                \     /   | |  | | |  |  |  |  | |\  \  |  | \   \       
                 \___/    |_|  |_| |__|  |__|  |_| \__\ |__|  \__/        
                                                                              
                      - O R C A' S   B I G   F R I E N D -                    
                                      &                                       
                       - I N T E G R A L  F E E D E R -                       
                                                                              
 v1 FN, 2020, v2 2021, v3 2022-2024                                           
------------------------------------------------------------------------------


----------------------
SHARK INTEGRAL PACKAGE
----------------------

Number of atoms                             ...      7
Number of basis functions                   ...     79
Number of shells                            ...     35
Maximum angular momentum                    ...      3
Integral batch strategy                     ... SHARK/LIBINT Hybrid
RI-J (if used) integral strategy            ... SPLIT-RIJ (Revised 2003 algorithm where possible)
Printlevel                                  ...      1
Contraction scheme used                     ... SEGMENTED contraction
Prescreening option                         ... SCHWARTZ
   Thresh                                   ... 1.000e-10
   Tcut                                     ... 3.000e-11
   Tpresel                                  ... 3.000e-11 
Coulomb Range Separation                    ... NOT USED
Exchange Range Separation                   ... NOT USED
Multipole approximations                    ... NOT USED
Finite Nucleus Model                        ... NOT USED
CABS basis                                  ... NOT available
Auxiliary Coulomb fitting basis             ... NOT available
Auxiliary J/K fitting basis                 ... NOT available
Auxiliary Correlation fitting basis         ... NOT available
Auxiliary 'external' fitting basis          ... NOT available

Checking pre-screening integrals            ... done (  0.0 sec) Dimension = 35
Check shell pair data                       ... done (  0.0 sec)
Shell pair information
Shell pair cut-off parameter TPreSel        ...   3.0e-11
Total number of shell pairs                 ...       630
Shell pairs after pre-screening             ...       624
Total number of primitive shell pairs       ...      2779
Primitive shell pairs kept                  ...      2295
          la=0 lb=0:    186 shell pairs
          la=1 lb=0:    207 shell pairs
          la=1 lb=1:     66 shell pairs
          la=2 lb=0:     76 shell pairs
          la=2 lb=1:     44 shell pairs
          la=2 lb=2:     10 shell pairs
          la=3 lb=0:     19 shell pairs
          la=3 lb=1:     11 shell pairs
          la=3 lb=2:      4 shell pairs
          la=3 lb=3:      1 shell pairs

Calculating one electron integrals          ... done (  0.0 sec)
Calculating Nuclear repulsion               ... done (  0.0 sec) ENN=    164.142474987341 Eh

Diagonalization of the overlap matrix:
Smallest eigenvalue                        ... 2.220e-03
Time for diagonalization                   ...    0.001 sec
Threshold for overlap eigenvalues          ... 1.000e-07
Number of eigenvalues below threshold      ... 0
Time for construction of square roots      ...    0.000 sec
Total time needed                          ...    0.002 sec

-------------------
DFT GRID GENERATION
-------------------

General Integration Accuracy     IntAcc      ... 4.388
Radial Grid Type                 RadialGrid  ... OptM3 with GC (2021)
Angular Grid (max. ang.)         AngularGrid ... 4 (Lebedev-302)
Angular grid pruning method      GridPruning ... 4 (adaptive)
Weight generation scheme         WeightScheme... mBecke (2022)
Basis function cutoff            BFCut       ... 3.0000e-11
Integration weight cutoff        WCut        ... 1.0000e-14
Partially contracted basis set               ... off
Rotationally invariant grid construction     ... off
Angular grids for H and He will be reduced by one unit
Core-polarized basis detected: some atoms will have their core
                               angular grid increased.

Total number of grid points                  ...    36343
Total number of batches                      ...      571
Average number of points per batch           ...       63
Average number of grid points per atom       ...     5192
Initializing property integral containers    ... done (  0.0 sec)

SHARK setup successfully completed in   0.3 seconds

Maximum memory used throughout the entire STARTUP-calculation: 12.5 MB


           ************************************************************
           *        Program running with 32 parallel MPI-processes    *
           *              working on a common directory               *
           ************************************************************
             **** ENERGY FILE WAS UPDATED (/scratch/orcascr/Ni0-C2H4/Ni0-C2H4.en.tmp) ****
Finished Guess after   0.1 sec
Maximum memory used throughout the entire GUESS-calculation: 6.4 MB


           ************************************************************
           *        Program running with 32 parallel MPI-processes    *
           *              working on a common directory               *
           ************************************************************
----------------------------------------D-I-I-S--------------------------------------------
Iteration    Energy (Eh)           Delta-E    RMSDP     MaxDP     DIISErr   Damp  Time(sec)
-------------------------------------------------------------------------------------------
               ***  Starting incremental Fock matrix formation  ***
    1    -1586.2254067018168371     0.00e+00  5.60e-04  1.33e-02  6.20e-03  0.700   0.1
    2    -1586.2257552123624009    -3.49e-04  4.71e-04  1.11e-02  4.17e-03  0.700   0.1
                               ***Turning on AO-DIIS***
                              *** Initializing SOSCF ***
---------------------------------------S-O-S-C-F--------------------------------------
Iteration    Energy (Eh)           Delta-E    RMSDP     MaxDP     MaxGrad    Time(sec)
--------------------------------------------------------------------------------------
    3    -1586.2259843287656622    -2.29e-04  1.17e-03  2.65e-02  2.71e-03     0.1
               *** Restarting incremental Fock matrix formation ***
    4    -1586.2264841823587176    -5.00e-04  9.19e-04  1.58e-02  3.95e-03     0.1
    5    -1586.2246782036022523     1.81e-03  7.08e-04  1.04e-02  1.77e-02     0.1
    6    -1586.2266078988036497    -1.93e-03  6.12e-05  1.00e-03  3.56e-04     0.1
    7    -1586.2266114051587920    -3.51e-06  5.59e-05  1.23e-03  1.60e-04     0.1
    8    -1586.2266125188664319    -1.11e-06  1.71e-05  1.94e-04  1.12e-04     0.1
    9    -1586.2266129143683884    -3.96e-07  5.64e-06  1.14e-04  2.89e-05     0.1
   10    -1586.2266129282547809    -1.39e-08  1.36e-06  2.39e-05  1.04e-05     0.1
                 **** Energy Check signals convergence ****

               *****************************************************
               *                     SUCCESS                       *
               *           SCF CONVERGED AFTER  10 CYCLES          *
               *****************************************************

             **** ENERGY FILE WAS UPDATED (/scratch/orcascr/Ni0-C2H4/Ni0-C2H4.en.tmp) ****

----------------
TOTAL SCF ENERGY
----------------

Total Energy       :      -1586.22661292825478 Eh          -43163.42052 eV

Components:
Nuclear Repulsion  :        164.14247498734107 Eh            4466.54382 eV
Electronic Energy  :      -1750.36908791559586 Eh          -47629.96434 eV
One Electron Energy:      -2530.18503709083052 Eh          -68849.83512 eV
Two Electron Energy:        779.81594917523466 Eh           21219.87077 eV

Virial components:
Potential Energy   :      -3170.53521055035071 Eh          -86274.64920 eV
Kinetic Energy     :       1584.30859762209593 Eh           43111.22867 eV
Virial Ratio       :          2.00121063239134

DFT components:
N(Alpha)           :       22.000005813891 electrons
N(Beta)            :       22.000005813891 electrons
N(Total)           :       44.000011627782 electrons
E(X)               :      -55.162966038002 Eh       
E(C)               :       -1.835494490796 Eh       
E(XC)              :      -56.998460528798 Eh       

---------------
SCF CONVERGENCE
---------------

  Last Energy change         ...    1.3886e-08  Tolerance :   3.0000e-07
  Last MAX-Density change    ...    2.3898e-05  Tolerance :   3.0000e-06
  Last RMS-Density change    ...    1.3592e-06  Tolerance :   1.0000e-07
  Last DIIS Error            ...    2.7129e-03  Tolerance :   3.0000e-06
  Last Orbital Gradient      ...    1.0416e-05  Tolerance :   2.0000e-05
  Last Orbital Rotation      ...    5.0194e-05  Tolerance :   2.0000e-05


----------------------
UHF SPIN CONTAMINATION
----------------------

Warning: in a DFT calculation there is little theoretical justification to 
         calculate <S**2> as in Hartree-Fock theory. We will do it anyways
         but you should keep in mind that the values have only limited relevance

Expectation value of <S**2>     :    -0.000000
Ideal value S*(S+1) for S=0.0   :     0.000000
Deviation                       :    -0.000000

Total SCF time: 0 days 0 hours 0 min 0 sec 
Finished LeanSCF after   0.9 sec

Maximum memory used throughout the entire LEANSCF-calculation: 12.3 MB


-------------------------------------------------------------------------------
                          DFT DISPERSION CORRECTION                            
                                                                               
                              DFTD3 V3.1  Rev 1                                
                          USING Becke-Johnson damping                          
-------------------------------------------------------------------------------
-------------------------   ----------------
Dispersion correction           -0.003696227
-------------------------   ----------------


-------------------------   --------------------
FINAL SINGLE POINT ENERGY     -1586.230309154986
-------------------------   --------------------



           ************************************************************
           *        Program running with 32 parallel MPI-processes    *
           *              working on a common directory               *
           ************************************************************
------------------------------------------------------------------------------
                         ORCA SCF GRADIENT CALCULATION
------------------------------------------------------------------------------

Nuc. rep. gradient        (SHARK) ... done (  0.0 sec)
HCore & Overlap gradient  (SHARK) ... done (  0.0 sec)
Two-electron gradient     (SHARK) ... done (  0.3 sec)
XC gradient                       ... done (  0.0 sec)
Dispersion correction             ... done (  0.0 sec)

-------------------
DISPERSION GRADIENT
-------------------

   1   Ni  :   -0.000028786    0.000024944   -0.000008696
   2   C   :   -0.000000320   -0.000001332    0.000016931
   3   C   :    0.000003845   -0.000001351   -0.000016017
   4   H   :    0.000011848    0.000013541    0.000041606
   5   H   :   -0.000008558   -0.000025180    0.000041429
   6   H   :    0.000001225   -0.000023754   -0.000039742
   7   H   :    0.000020746    0.000013133   -0.000035511

Difference to translation invariance:
           :   -0.0000000000   -0.0000000000   -0.0000000000

Difference to rotation invariance:
           :   -0.0000000000    0.0000000000   -0.0000000000

Norm of the Dispersion gradient    ...    0.0001028378
RMS gradient                       ...    0.0000224411
MAX gradient                       ...    0.0000416059

------------------
CARTESIAN GRADIENT
------------------

   1   Ni  :    0.113817151   -0.078317032    0.006086944
   2   C   :   -0.008300317    0.016286584   -0.067805862
   3   C   :   -0.050595618    0.032866013    0.067347895
   4   H   :   -0.014502720    0.007339383   -0.004112621
   5   H   :   -0.010589748    0.005269178   -0.001556669
   6   H   :   -0.012446646    0.008841258   -0.000534308
   7   H   :   -0.017382102    0.007714617    0.000574620

Difference to translation invariance:
           :    0.0000000000   -0.0000000001   -0.0000000000

Difference to rotation invariance:
           :   -0.0000002504    0.0000677385   -0.0000348031

Norm of the Cartesian gradient     ...    0.1823495553
RMS gradient                       ...    0.0397919352
MAX gradient                       ...    0.1138171514

-------
TIMINGS
-------

Total SCF gradient time     ....        0.447 sec

Densities                   ....       0.000 sec  (  0.0%)
One electron gradient       ....       0.020 sec  (  4.4%)
Two electron gradient       ....       0.343 sec  ( 76.8%)
XC gradient                 ....       0.044 sec  (  9.9%)

Maximum memory used throughout the entire SCFGRAD-calculation: 26.6 MB
------------------------------------------------------------------------------
                         ORCA GEOMETRY RELAXATION STEP
------------------------------------------------------------------------------

Reading the OPT-File                    .... done
Getting information on internals        .... done
Copying old internal coords+grads       .... done
Making the new internal coordinates     .... (2022 redundants) done
Validating the new internal coordinates .... (2022 redundants) done
Calculating the B-matrix                .... done
Calculating the G,G- and P matrices     .... done
Transforming gradient to internals      .... done
Projecting the internal gradient        .... done
Number of atoms                         ....   7
Number of internal coordinates          ....  70
Current Energy                          .... -1586.230309155 Eh
Current gradient norm                   ....     0.182349555 Eh/bohr
Maximum allowed component of the step   ....  0.300
Current trust radius                    ....  0.300
Updating the Hessian (BFGS)             .... done
Forming the augmented Hessian           .... done
Diagonalizing the augmented Hessian     .... done
Last element of RFO vector              ....  0.907662366
Lowest eigenvalues of augmented Hessian:
 -0.026724652  0.066479201  0.081188034  0.096434249  0.111432162
Length of the computed step             ....  0.462397842
Warning: the length of the step is outside the trust region - taking restricted step instead
The input lambda is                     ....     0.059578
   iter:   5  x=    0.052798  g=15218.062506 f(x)=    40.317171
   iter:  10  x=   -0.001989  g=   34.663713 f(x)=     0.710688
   iter:  15  x=   -0.081892  g=    1.106518 f(x)=     0.000387
The output lambda is                    ....    -0.081893 (18 iterations)
The final length of the internal step   ....  0.300000000
Converting the step to Cartesian space:
 Initial RMS(Int)=    0.0358568583
Transforming coordinates:
 Iter   0:  RMS(Cart)=    0.0367547109 RMS(Int)=    0.0359087259
done
Storing new coordinates                 .... done
The predicted energy change is          ....    -0.013244442
Previously predicted energy change      ....    -0.009855828
Actually observed energy change         ....    -0.015646635
Ratio of predicted to observed change   ....     1.587551600
New trust radius                        ....     0.200000000

                                .--------------------.
          ----------------------|Geometry convergence|-------------------------
          Item                value                   Tolerance       Converged
          ---------------------------------------------------------------------
          Energy change      -0.0156466350            0.0000050000      NO
          RMS gradient        0.0101354445            0.0001000000      NO
          MAX gradient        0.0400333405            0.0003000000      NO
          RMS step            0.0358568583            0.0020000000      NO
          MAX step            0.1151605851            0.0040000000      NO
          ........................................................
          Max(Bonds)      0.0609      Max(Angles)    2.66
          Max(Dihed)        4.20      Max(Improp)    0.00
          ---------------------------------------------------------------------

The optimization has not yet converged - more geometry cycles are needed


    ---------------------------------------------------------------------------
                         Redundant Internal Coordinates
                            (Angstroem and degrees)

        Definition                    Value    dE/dq     Step     New-Value
    ----------------------------------------------------------------------------
     1. B(C   1,Ni  0)                1.7267 -0.040033  0.0363    1.7630   
     2. B(C   2,C   1)                1.3739 -0.033207  0.0517    1.4256   
     3. B(C   2,Ni  0)                1.6634 -0.038317  0.0391    1.7025   
     4. B(H   3,C   1)                1.0980  0.007473 -0.0024    1.0957   
     5. B(H   3,Ni  0)                2.2088 -0.025291  0.0547    2.2635   
     6. B(H   4,C   1)                1.1007  0.000386 -0.0008    1.0999   
     7. B(H   5,Ni  0)                2.2452 -0.026134  0.0521    2.2973   
     8. B(H   5,C   2)                1.1000  0.009614 -0.0026    1.0975   
     9. B(H   6,C   2)                1.1004  0.006215 -0.0014    1.0990   
    10. B(H   6,Ni  0)                2.1147 -0.025874  0.0609    2.1756   
    11. A(H   3,Ni  0,H   5)           90.32  0.009269   -1.40     88.91   
    12. A(H   3,Ni  0,H   6)           72.30  0.003885   -0.77     71.53   
    13. A(C   1,Ni  0,H   3)           29.26  0.005096   -1.05     28.21   
    14. A(C   2,Ni  0,H   6)           31.04  0.005540   -1.21     29.83   
    15. A(C   1,Ni  0,H   6)           67.98  0.004293   -0.53     67.44   
    16. A(C   2,Ni  0,H   5)           27.96  0.005621   -1.02     26.94   
    17. A(C   1,Ni  0,C   2)           47.77 -0.000494    0.81     48.58   
    18. A(H   5,Ni  0,H   6)           50.23  0.008652   -1.48     48.75   
    19. A(C   2,Ni  0,H   3)           66.47  0.003673   -0.30     66.17   
    20. A(C   1,Ni  0,H   5)           64.92  0.003579   -0.11     64.81   
    21. A(C   2,C   1,H   3)          122.46  0.002426    0.02    122.47   
    22. A(Ni  0,C   1,H   3)          100.51  0.003043    1.67    102.17   
    23. A(H   3,C   1,H   4)          114.82 -0.001143    0.13    114.95   
    24. A(C   2,C   1,H   4)          122.63 -0.001131   -0.29    122.34   
    25. A(Ni  0,C   1,H   4)          110.10 -0.005105    2.66    112.76   
    26. A(Ni  0,C   1,C   2)           63.70  0.000308   -0.19     63.51   
    27. A(Ni  0,C   2,H   5)          106.90  0.000632    1.42    108.33   
    28. A(H   5,C   2,H   6)          114.83 -0.002858    0.10    114.93   
    29. A(Ni  0,C   2,C   1)           68.53  0.000186   -0.61     67.92   
    30. A(C   1,C   2,H   6)          122.31  0.002431   -0.30    122.01   
    31. A(Ni  0,C   2,H   6)           97.75  0.001889    1.89     99.65   
    32. A(C   1,C   2,H   5)          122.82  0.000358    0.15    122.97   
    33. A(Ni  0,H   3,C   1)           50.23 -0.008139   -0.61     49.62   
    34. A(Ni  0,H   5,C   2)           45.14 -0.006253   -0.40     44.74   
    35. A(Ni  0,H   6,C   2)           51.21 -0.007430   -0.68     50.52   
    36. D(C   2,C   1,Ni  0,H   5)     26.84  0.004445   -0.85     25.98   
    37. D(H   3,C   1,Ni  0,H   6)     92.91 -0.002110   -0.13     92.78   
    38. D(C   2,C   1,Ni  0,H   3)   -121.14 -0.001272    0.75   -120.39   
    39. D(H   3,C   1,Ni  0,C   2)    121.14  0.001272   -0.75    120.39   
    40. D(H   4,C   1,Ni  0,C   2)   -117.36 -0.000649    1.34   -116.02   
    41. D(C   2,C   1,Ni  0,H   6)    -28.23 -0.003382    0.62    -27.61   
    42. D(H   3,C   1,Ni  0,H   5)    147.98  0.005718   -1.60    146.38   
    43. D(H   6,C   2,Ni  0,C   1)   -121.75 -0.001890    0.99   -120.76   
    44. D(H   5,C   2,Ni  0,H   6)   -118.97  0.002124   -1.30   -120.27   
    45. D(H   5,C   2,Ni  0,H   3)    146.43  0.003683   -0.96    145.47   
    46. D(H   5,C   2,Ni  0,C   1)    119.28  0.000234   -0.31    118.97   
    47. D(H   6,C   2,C   1,Ni  0)     85.57  0.001433    2.12     87.69   
    48. D(Ni  0,C   2,C   1,H   3)    -85.80 -0.002858   -2.04    -87.84   
    49. D(C   1,C   2,Ni  0,H   5)   -119.28 -0.000234    0.31   -118.97   
    50. D(H   5,C   2,C   1,Ni  0)    -96.78 -0.000776   -1.33    -98.12   
    51. D(C   1,C   2,Ni  0,H   3)     27.15  0.003450   -0.65     26.50   
    52. D(H   5,C   2,C   1,H   3)    177.41 -0.003634   -3.37    174.04   
    53. D(H   5,C   2,C   1,H   4)      1.19 -0.006548    2.02      3.21   
    54. D(Ni  0,C   2,C   1,H   4)     97.97 -0.005772    3.36    101.33   
    55. D(C   1,C   2,Ni  0,H   6)    121.75  0.001890   -0.99    120.76   
    56. D(Ni  0,H   3,C   1,H   4)   -118.09  0.004716   -4.20   -122.29   
    57. D(Ni  0,H   3,C   1,C   2)     65.41  0.002025    0.80     66.21   
    58. D(C   1,H   3,Ni  0,H   6)    -76.38 -0.002491   -0.14    -76.52   
    59. D(C   1,H   3,Ni  0,H   5)    -28.70  0.004061   -1.37    -30.07   
    60. D(C   1,H   3,Ni  0,C   2)    -43.73  0.002694   -1.25    -44.98   
    61. D(Ni  0,H   5,C   2,H   6)   -107.22 -0.001304   -3.09   -110.31   
    62. D(Ni  0,H   5,C   2,C   1)     74.98  0.000644    0.12     75.10   
    63. D(C   2,H   5,Ni  0,H   6)     35.94  0.002305   -1.08     34.86   
    64. D(C   2,H   5,Ni  0,H   3)    -30.46  0.002294   -0.77    -31.23   
    65. D(C   2,H   5,Ni  0,C   1)    -45.48  0.002293   -0.97    -46.45   
    66. D(C   2,H   6,Ni  0,C   1)     42.78 -0.003105    1.43     44.21   
    67. D(Ni  0,H   6,C   2,H   5)    112.73  0.000809    2.70    115.43   
    68. D(Ni  0,H   6,C   2,C   1)    -69.46 -0.001178   -0.50    -69.95   
    69. D(C   2,H   6,Ni  0,H   5)    -32.25 -0.002881    0.89    -31.36   
    70. D(C   2,H   6,Ni  0,H   3)     73.61  0.001647    0.46     74.07   
    ----------------------------------------------------------------------------

Geometry step timings:
Preparation and reading OPT file:      0.000 s (12.530 %)
Internal coordinates            :      0.000 s ( 1.291 %)
B/P matrices and projection     :      0.000 s (13.534 %)
Hessian update/contruction      :      0.000 s (12.291 %)
Making the step                 :      0.001 s (29.364 %)
Converting the step to Cartesian:      0.000 s ( 2.200 %)
Storing new data                :      0.000 s ( 1.243 %)
Checking convergence            :      0.000 s ( 0.526 %)
Final printing                  :      0.001 s (26.877 %)
Total time                      :      0.002 s

Time for energy+gradient        :      2.734 s
Time for complete geometry iter :      2.985 s

         *************************************************************
         *                GEOMETRY OPTIMIZATION CYCLE   3            *
         *************************************************************
---------------------------------
CARTESIAN COORDINATES (ANGSTROEM)
---------------------------------
  Ni     1.318283    3.457972   -0.261969
  C      2.460934    2.524904    0.703740
  C      2.658175    2.506409   -0.708043
  H      2.900368    3.294201    1.348277
  H      1.983123    1.692108    1.240410
  H      2.302878    1.690212   -1.349642
  H      3.261441    3.267673   -1.221795

----------------------------
CARTESIAN COORDINATES (A.U.)
----------------------------
  NO LB      ZA    FRAG     MASS         X           Y           Z
   0 Ni   28.0000    0    58.700    2.491194    6.534620   -0.495049
   1 C     6.0000    0    12.011    4.650491    4.771377    1.329875
   2 C     6.0000    0    12.011    5.023222    4.736428   -1.338008
   3 H     1.0000    0     1.008    5.480901    6.225137    2.547875
   4 H     1.0000    0     1.008    3.747558    3.197620    2.344035
   5 H     1.0000    0     1.008    4.351809    3.194037   -2.550454
   6 H     1.0000    0     1.008    6.163230    6.175007   -2.308857

--------------------------------
INTERNAL COORDINATES (ANGSTROEM)
--------------------------------
 Ni     0   0   0     0.000000000000     0.00000000     0.00000000
 C      1   0   0     1.763195463775     0.00000000     0.00000000
 C      2   1   0     1.425614714544    63.52148192     0.00000000
 H      2   1   3     1.095604400724   102.15507951   120.36400771
 H      2   1   3     1.099940208742   112.72951313   244.05655041
 H      3   2   1     1.097298215043   122.94857224   261.88409769
 H      3   2   1     1.098814335607   122.00447881    87.68872391

---------------------------
INTERNAL COORDINATES (A.U.)
---------------------------
 Ni     0   0   0     0.000000000000     0.00000000     0.00000000
 C      1   0   0     3.331956547108     0.00000000     0.00000000
 C      2   1   0     2.694021382977    63.52148192     0.00000000
 H      2   1   3     2.070392268486   102.15507951   120.36400771
 H      2   1   3     2.078585758211   112.72951313   244.05655041
 H      3   2   1     2.073593113672   122.94857224   261.88409769
 H      3   2   1     2.076458166325   122.00447881    87.68872391



           ************************************************************
           *        Program running with 32 parallel MPI-processes    *
           *              working on a common directory               *
           ************************************************************
------------------------------------------------------------------------------
                   ___                                                        
                  /   \      - P O W E R E D   B Y -                         
                 /     \                                                     
                 |  |  |   _    _      __       _____    __    __             
                 |  |  |  | |  | |    /  \     |  _  \  |  |  /  |          
                  \  \/   | |  | |   /    \    | | | |  |  | /  /          
                 / \  \   | |__| |  /  /\  \   | |_| |  |  |/  /          
                |  |  |   |  __  | /  /__\  \  |    /   |      \           
                |  |  |   | |  | | |   __   |  |    \   |  |\   \          
                \     /   | |  | | |  |  |  |  | |\  \  |  | \   \       
                 \___/    |_|  |_| |__|  |__|  |_| \__\ |__|  \__/        
                                                                              
                      - O R C A' S   B I G   F R I E N D -                    
                                      &                                       
                       - I N T E G R A L  F E E D E R -                       
                                                                              
 v1 FN, 2020, v2 2021, v3 2022-2024                                           
------------------------------------------------------------------------------


----------------------
SHARK INTEGRAL PACKAGE
----------------------

Number of atoms                             ...      7
Number of basis functions                   ...     79
Number of shells                            ...     35
Maximum angular momentum                    ...      3
[...]
Number of shells                            ...     35
Maximum angular momentum                    ...      3
Integral batch strategy                     ... SHARK/LIBINT Hybrid
RI-J (if used) integral strategy            ... SPLIT-RIJ (Revised 2003 algorithm where possible)
Printlevel                                  ...      1
Contraction scheme used                     ... SEGMENTED contraction
Prescreening option                         ... SCHWARTZ
   Thresh                                   ... 1.000e-10
   Tcut                                     ... 3.000e-11
   Tpresel                                  ... 3.000e-11 
Coulomb Range Separation                    ... NOT USED
Exchange Range Separation                   ... NOT USED
Multipole approximations                    ... NOT USED
Finite Nucleus Model                        ... NOT USED
CABS basis                                  ... NOT available
Auxiliary Coulomb fitting basis             ... NOT available
Auxiliary J/K fitting basis                 ... NOT available
Auxiliary Correlation fitting basis         ... NOT available
Auxiliary 'external' fitting basis          ... NOT available

Checking pre-screening integrals            ... done (  0.0 sec) Dimension = 35
Check shell pair data                       ... done (  0.0 sec)
Shell pair information
Shell pair cut-off parameter TPreSel        ...   3.0e-11
Total number of shell pairs                 ...       630
Shell pairs after pre-screening             ...       624
Total number of primitive shell pairs       ...      2779
Primitive shell pairs kept                  ...      2276
          la=0 lb=0:    186 shell pairs
          la=1 lb=0:    207 shell pairs
          la=1 lb=1:     66 shell pairs
          la=2 lb=0:     76 shell pairs
          la=2 lb=1:     44 shell pairs
          la=2 lb=2:     10 shell pairs
          la=3 lb=0:     19 shell pairs
          la=3 lb=1:     11 shell pairs
          la=3 lb=2:      4 shell pairs
          la=3 lb=3:      1 shell pairs

Calculating one electron integrals          ... done (  0.0 sec)
Calculating Nuclear repulsion               ... done (  0.0 sec) ENN=    151.564333755335 Eh

Diagonalization of the overlap matrix:
Smallest eigenvalue                        ... 3.278e-03
Time for diagonalization                   ...    0.001 sec
Threshold for overlap eigenvalues          ... 1.000e-07
Number of eigenvalues below threshold      ... 0
Time for construction of square roots      ...    0.000 sec
Total time needed                          ...    0.002 sec

-------------------
DFT GRID GENERATION
-------------------

General Integration Accuracy     IntAcc      ... 4.388
Radial Grid Type                 RadialGrid  ... OptM3 with GC (2021)
Angular Grid (max. ang.)         AngularGrid ... 4 (Lebedev-302)
Angular grid pruning method      GridPruning ... 4 (adaptive)
Weight generation scheme         WeightScheme... mBecke (2022)
Basis function cutoff            BFCut       ... 3.0000e-11
Integration weight cutoff        WCut        ... 1.0000e-14
Partially contracted basis set               ... off
Rotationally invariant grid construction     ... off
Angular grids for H and He will be reduced by one unit
Core-polarized basis detected: some atoms will have their core
                               angular grid increased.

Total number of grid points                  ...    36375
Total number of batches                      ...      572
Average number of points per batch           ...       63
Average number of grid points per atom       ...     5196
Initializing property integral containers    ... done (  0.0 sec)

SHARK setup successfully completed in   0.3 seconds

Maximum memory used throughout the entire STARTUP-calculation: 12.5 MB


           ************************************************************
           *        Program running with 32 parallel MPI-processes    *
           *              working on a common directory               *
           ************************************************************
             **** ENERGY FILE WAS UPDATED (/scratch/orcascr/Ni0-C2H4/Ni0-C2H4.en.tmp) ****
Finished Guess after   0.1 sec
Maximum memory used throughout the entire GUESS-calculation: 6.4 MB


           ************************************************************
           *        Program running with 32 parallel MPI-processes    *
           *              working on a common directory               *
           ************************************************************
----------------------------------------D-I-I-S--------------------------------------------
Iteration    Energy (Eh)           Delta-E    RMSDP     MaxDP     DIISErr   Damp  Time(sec)
-------------------------------------------------------------------------------------------
               ***  Starting incremental Fock matrix formation  ***
                              *** Initializing SOSCF ***
---------------------------------------S-O-S-C-F--------------------------------------
Iteration    Energy (Eh)           Delta-E    RMSDP     MaxDP     MaxGrad    Time(sec)
--------------------------------------------------------------------------------------
    1    -1586.2658352882199324     0.00e+00  1.54e-05  1.85e-04  2.40e-05     0.1
               *** Restarting incremental Fock matrix formation ***
    2    -1586.2658357259751938    -4.38e-07  2.12e-05  3.32e-04  1.48e-04     0.1
    3    -1586.2658340543300710     1.67e-06  1.84e-05  2.76e-04  6.42e-04     0.1
    4    -1586.2658358773564942    -1.82e-06  2.16e-06  2.39e-05  1.20e-05     0.1
    5    -1586.2658358828259679    -5.47e-09  1.36e-06  1.72e-05  1.33e-05     0.1
                 **** Energy Check signals convergence ****

               *****************************************************
               *                     SUCCESS                       *
               *           SCF CONVERGED AFTER   5 CYCLES          *
               *****************************************************

             **** ENERGY FILE WAS UPDATED (/scratch/orcascr/Ni0-C2H4/Ni0-C2H4.en.tmp) ****

----------------
TOTAL SCF ENERGY
----------------

Total Energy       :      -1586.26583588282597 Eh          -43164.48783 eV

Components:
Nuclear Repulsion  :        151.56433375533507 Eh            4124.27520 eV
Electronic Energy  :      -1737.83016963816135 Eh          -47288.76303 eV
One Electron Energy:      -2505.34235823520339 Eh          -68173.83146 eV
Two Electron Energy:        767.51218859704215 Eh           20885.06843 eV

Virial components:
Potential Energy   :      -3169.89069815011680 Eh          -86257.11112 eV
Kinetic Energy     :       1583.62486226729061 Eh           43092.62329 eV
Virial Ratio       :          2.00166767627767

DFT components:
N(Alpha)           :       22.000009740322 electrons
N(Beta)            :       22.000009740322 electrons
N(Total)           :       44.000019480643 electrons
E(X)               :      -55.086882237033 Eh       
E(C)               :       -1.823465032766 Eh       
E(XC)              :      -56.910347269799 Eh       

---------------
SCF CONVERGENCE
---------------

  Last Energy change         ...    5.4695e-09  Tolerance :   3.0000e-07
  Last MAX-Density change    ...    1.7187e-05  Tolerance :   3.0000e-06
  Last RMS-Density change    ...    1.3624e-06  Tolerance :   1.0000e-07
  Last DIIS Error            ...    1.1325e-04  Tolerance :   3.0000e-06
  Last Orbital Gradient      ...    1.3312e-05  Tolerance :   2.0000e-05
  Last Orbital Rotation      ...    3.9322e-05  Tolerance :   2.0000e-05


----------------------
UHF SPIN CONTAMINATION
----------------------

Warning: in a DFT calculation there is little theoretical justification to 
         calculate <S**2> as in Hartree-Fock theory. We will do it anyways
         but you should keep in mind that the values have only limited relevance

Expectation value of <S**2>     :     0.000000
Ideal value S*(S+1) for S=0.0   :     0.000000
Deviation                       :     0.000000

----------------
ORBITAL ENERGIES
----------------
                 SPIN UP ORBITALS
  NO   OCC          E(Eh)            E(eV) 
   0   1.0000    -300.033241     -8164.3195 
   1   1.0000     -35.779815      -973.6183 
   2   1.0000     -31.186101      -848.6170 
   3   1.0000     -31.179632      -848.4409 
   4   1.0000     -31.170655      -848.1966 
   5   1.0000     -10.210423      -277.8397 
   6   1.0000     -10.210079      -277.8304 
   7   1.0000      -3.959175      -107.7346 
   8   1.0000      -2.555330       -69.5341 
   9   1.0000      -2.535484       -68.9940 
  10   1.0000      -2.516774       -68.4849 
  11   1.0000      -0.748556       -20.3692 
  12   1.0000      -0.573400       -15.6030 
  13   1.0000      -0.448541       -12.2054 
  14   1.0000      -0.422235       -11.4896 
  15   1.0000      -0.343406        -9.3446 
  16   1.0000      -0.292200        -7.9512 
  17   1.0000      -0.227389        -6.1876 
  18   1.0000      -0.202297        -5.5048 
  19   1.0000      -0.200259        -5.4493 
  20   1.0000      -0.186969        -5.0877 
  21   1.0000      -0.172772        -4.7014 
  22   0.0000      -0.040518        -1.1025 
  23   0.0000       0.003745         0.1019 
  24   0.0000       0.099106         2.6968 
  25   0.0000       0.120097         3.2680 
  26   0.0000       0.137329         3.7369 
  27   0.0000       0.139496         3.7959 
  28   0.0000       0.160266         4.3611 
  29   0.0000       0.211769         5.7625 
  30   0.0000       0.241313         6.5665 
  31   0.0000       0.314432         8.5561 
  32   0.0000       0.356209         9.6929 

                 SPIN DOWN ORBITALS
  NO   OCC          E(Eh)            E(eV) 
   0   1.0000    -300.033241     -8164.3195 
   1   1.0000     -35.779815      -973.6183 
   2   1.0000     -31.186101      -848.6170 
   3   1.0000     -31.179632      -848.4409 
   4   1.0000     -31.170655      -848.1966 
   5   1.0000     -10.210423      -277.8397 
   6   1.0000     -10.210079      -277.8304 
   7   1.0000      -3.959175      -107.7346 
   8   1.0000      -2.555330       -69.5341 
   9   1.0000      -2.535484       -68.9940 
  10   1.0000      -2.516774       -68.4849 
  11   1.0000      -0.748556       -20.3692 
  12   1.0000      -0.573400       -15.6030 
  13   1.0000      -0.448541       -12.2054 
  14   1.0000      -0.422235       -11.4896 
  15   1.0000      -0.343406        -9.3446 
  16   1.0000      -0.292200        -7.9512 
  17   1.0000      -0.227389        -6.1876 
  18   1.0000      -0.202297        -5.5048 
  19   1.0000      -0.200259        -5.4493 
  20   1.0000      -0.186969        -5.0877 
  21   1.0000      -0.172772        -4.7014 
  22   0.0000      -0.040518        -1.1025 
  23   0.0000       0.003745         0.1019 
  24   0.0000       0.099106         2.6968 
  25   0.0000       0.120097         3.2680 
  26   0.0000       0.137329         3.7369 
  27   0.0000       0.139496         3.7959 
  28   0.0000       0.160266         4.3611 
  29   0.0000       0.211769         5.7625 
  30   0.0000       0.241313         6.5665 
  31   0.0000       0.314432         8.5561 
  32   0.0000       0.356209         9.6929 
*Only the first 10 virtual orbitals were printed.
Total SCF time: 0 days 0 hours 0 min 0 sec 
Finished LeanSCF after   0.5 sec

Maximum memory used throughout the entire LEANSCF-calculation: 14.0 MB


-------------------------------------------------------------------------------
                          DFT DISPERSION CORRECTION                            
                                                                               
                              DFTD3 V3.1  Rev 1                                
                          USING Becke-Johnson damping                          
-------------------------------------------------------------------------------
-------------------------   ----------------
Dispersion correction           -0.003666391
-------------------------   ----------------


-------------------------   --------------------
FINAL SINGLE POINT ENERGY     -1586.269502273988
-------------------------   --------------------

                                *** OPTIMIZATION RUN DONE ***



           ************************************************************
           *        Program running with 32 parallel MPI-processes    *
           *              working on a common directory               *
           ************************************************************

------------------------------------------------------------------------------
                              ORCA PROPERTY CALCULATIONS
------------------------------------------------------------------------------

GBWName                                 ... /scratch/orcascr/Ni0-C2H4/Ni0-C2H4.gbw
Number of atoms                         ...      7
Number of basis functions               ...     79
Max core memory                         ...   4000 MB

Electric properties:
Dipole moment                           ... YES
Quadrupole moment                       ...  NO
Static polarizability (Dipole/Dipole)   ...  NO
Static polarizability (Dipole/Quad.)    ...  NO
Static polarizability (Quad./Quad.)     ...  NO
Static polarizability (Velocity)        ...  NO

Atomic electric properties:
Dipole moment                           ...  NO
Quadrupole moment                       ...  NO
Static polarizability                   ...  NO

Choice of electric origin               ... Center of mass
Position of electric origin             ...     2.910128     6.078213    -0.325797

General magnetic properties:
Magnetizability                         ...  NO

EPR properties:
g-Tensor (aka g-matrix)                 ...  NO
Zero-Field splitting spin-orbit         ...  NO
Zero-field splitting spin-spin          ...  NO
Hyperfine couplings                     ...  NO (   0 nuclei)
Quadrupole couplings                    ...  NO (   0 nuclei)
Contact density                         ...  NO (   0 nuclei)

NMR properties:
Chemical shifts                         ...  NO (   0 nuclei)
Spin-rotation constants                 ...  NO (   0 nuclei)
Spin-spin couplings                     ...  NO (   0 nuclei,    0 pairs)

Choice of magnetic origin               ... GIAO
Position of magnetic origin             ...     0.000000     0.000000     0.000000

Properties with geometric perturbations:
SCF Hessian                             ...  NO
IR spectrum                             ...  NO
VCD spectrum                            ...  NO
X-ray spectroscopy properties:
SCF XES/XAS/RIXS spectra                ...  NO


-------------
DIPOLE MOMENT
-------------

Method             : SCF
Type of density    : Electron Density
Multiplicity       :   1
Irrep              :   0
Energy             : -1586.2658358828259679 Eh
Relativity type    : 
Basis              : AO
                                X                 Y                 Z
Electronic contribution:     -6.291057843       4.206839306      -0.987847482
Nuclear contribution   :      5.565218090      -3.720308251       0.872799623
                        -----------------------------------------
Total Dipole Moment    :     -0.725839753       0.486531056      -0.115047859
                        -----------------------------------------
Magnitude (a.u.)       :      0.881357944
Magnitude (Debye)      :      2.240233858



--------------------
Rotational spectrum 
--------------------
 
Rotational constants in cm-1:             0.756624             0.275148             0.219513 
Rotational constants in MHz :         22683.011158          8248.741906          6580.836233 

Dipole components along the rotational axes: 
x,y,z [a.u.] :     0.881358     0.000109    -0.000707 
x,y,z [Debye]:     2.240233     0.000277    -0.001797 

 

Dipole moment calculation done in   0.0 sec 

Maximum memory used throughout the entire PROP-calculation: 4.9 MB

--------------------------------
SUGGESTED CITATIONS FOR THIS RUN
--------------------------------

Below you find a list of papers that are relevant to this ORCA run
We neither can nor want to force you to cite these papers, but we appreciate if you do
You receive ORCA, which is the product of decades of hard work by many enthusiastic individuals, for free
The only thing we kindly ask in return is that you cite our papers,
We deeply appreciate it, if you show your appreciation for ORCA by not just citing the generic ORCA reference.

Please note that relegating all ORCA citations to the supporting information does *not* help us.
SI sections are not indexed - citations you put there will not count into any citation statistics
But we need these citations in order to attract the funding resources that allow us to do what we are doing

Therefore, if you are a happy ORCA user, please consider citing a few of the papers listed below in the main body of your paper

In addition to the list printed below, the program has created the file /scratch/orcascr/Ni0-C2H4/Ni0-C2H4.bibtex that contains the list in bibtex format
You can import this file easily into all common literature databanks and citation aid programs


List of essential papers. We consider these as the minimum necessary citations

  1. Neese,F.
     Software update: the ORCA program system, version 5.0
     WIRES Comput. Molec. Sci., 2022 12(1)e1606
     doi.org/10.1002/wcms.1606

List of papers to cite with high priority. The work reported in these papers was absolutely
necessary for this run to complete.
Our perspective: the developers of density functionals and basis sets usually get cited in chemistry papers
Good! But without the algorithms to do something with them, the functionals or basis sets would not do anything.
Hence, in our opinion, the algorithm design and method developments papers are equally worthy of getting cited

  1. Neese,F.
     The SHARK Integral Generation and Digestion System
     J. Comp. Chem., 2022  1-16
     doi.org/10.1002/jcc.26942
  2. Grimme,S.; Antony,J.; Ehrlich,S.; Krieg,H.
     A consistent and accurate ab initio parametrization of density functional dispersion correction (DFT-D) for the 94 elements H-Pu
     J. Chem. Phys., 2010 132 154104
     doi.org/10.1063/1.3382344
  3. Grimme,S.; Ehrlich,S.; Goerigk,L.
     Effect of the damping function in dispersion corrected density functional theory
     J. Comput. Chem., 2011 32(7)1456-1465
     doi.org/10.1002/jcc.21759

List of suggested additional citations. These are papers that are important in the 'surrounding' of 
of this run, or papers that preceded the highly important papers. If you like your results we are grateful for a citation.

  1. Neese,F.
     The ORCA program system
     WIRES Comput. Molec. Sci., 2012 2(1)73-78
     doi.org/10.1002/wcms.81
  2. Neese,F.
     Software update: the ORCA program system, version 4.0
     WIRES Comput. Molec. Sci., 2018 8(1)1-6
     doi.org/10.1002/wcms.1327
  3. Neese,F.; Wennmohs,F.; Becker,U.; Riplinger,C.
     The ORCA quantum chemistry program package
     J. Chem. Phys., 2020 152 Art. No. L224108
     doi.org/10.1063/5.0004608

List of optional additional citations

  1. Neese,F.
     Approximate second-order SCF convergence for spin unrestricted wavefunctions
     Chem. Phys. Lett., 2000 325(1-3)93-98
     doi.org/10.1016/s0009-2614(00)00662-x

Timings for individual modules:

Sum of individual times          ...       48.614 sec (=   0.810 min)
Startup calculation              ...       10.719 sec (=   0.179 min)  22.0 %
SCF iterations                   ...       23.246 sec (=   0.387 min)  47.8 %
Property calculations            ...        0.301 sec (=   0.005 min)   0.6 %
SCF Gradient evaluation          ...       14.275 sec (=   0.238 min)  29.4 %
Geometry relaxation              ...        0.073 sec (=   0.001 min)   0.2 %
                             ****ORCA TERMINATED NORMALLY****
TOTAL RUN TIME: 0 days 0 hours 0 minutes 54 seconds 374 msec
