[Molden Format]
[Title]
generated by TRESC, real part1 of MOs of job Ni0-C2H4
 
[Atoms] AU
Ni   1  28    2.0327243480    6.6651129323   -0.4637853482
 C   2   6    4.4866582262    4.9116344944    1.3008835560
 C   3   6    4.8771137450    4.8741236186   -1.3947805326
 H   4   1    5.7310700770    6.0706468704    2.4997637439
 H   5   1    3.8369470533    3.1858198160    2.2645095603
 H   6   1    4.5308414173    3.1179949920   -2.4558991994
 H   7   1    6.4130479072    6.0088908466   -2.2212746715
[GTO]
  1 0
 s  6 1.0
   105040.0623800000        0.0035171970
    13968.3586480000        0.0173391066
     2940.9041687000        0.0741624358
      786.1020253800        0.2530654570
      245.2580996100        0.5385985895
       81.4764798070        0.4440458912
 s  3 1.0
      156.2637962600       -0.1055600427
       18.1782549770        0.6426665159
        7.4444231636        0.4714885202
 s  3 1.0
       12.9345647400       -0.2291772139
        2.1221056648        0.7395224896
        0.8740880520        0.4584156000
 s  1 1.0
        0.1104545011        1.0000000000
 s  1 1.0
        0.0401880342        1.0000000000
 p  6 1.0
     2356.4518106000       -0.0000855328
      513.4513882300       -0.0005420978
      158.2013335400       -0.0024494945
       57.5500069520       -0.0071523316
       22.5659922940       -0.0118148309
        9.0452780395       -0.0071547652
 p  5 1.0
     1045.8514156000        0.0092908253
      234.8058471900        0.0670834485
       72.4328268820        0.2652923948
       25.6138643320        0.5353100645
        9.4079524620        0.3595935862
 p  1 1.0
        6.9922696496        1.0000000000
 p  3 1.0
        4.8001460600        0.3535617403
        1.8423116558        0.5937621194
        0.6865826193        0.2491809881
 p  1 1.0
        0.1465880000        1.0000000000
 d  4 1.0
       47.9675640250        0.0288745010
       13.3221273820        0.1553500110
        4.4560102246        0.3821354899
        1.4827299619        0.4857955113
 d  1 1.0
        0.4362198809        1.0000000000
 d  1 1.0
        0.1200000000        1.0000000000
 f  1 1.0
        2.1740000000        1.0000000000
 
  2 0
 s  5 1.0
     1231.7975026000        0.0058423196
      185.5974766200        0.0415113222
       42.0875016200        0.1832849990
       11.6300369400        0.4683526005
        3.5840894779        0.4430601820
 s  1 1.0
        0.4029351893        1.0000000000
 s  1 1.0
        0.1309419451        1.0000000000
 p  3 1.0
        9.4821246358        0.0381720490
        2.0121097169        0.2099973699
        0.5481253660        0.5104097902
 p  1 1.0
        0.1527756940        1.0000000000
 d  1 1.0
        0.8000000000        1.0000000000
 
  3 0
 s  5 1.0
     1231.7975026000        0.0058423196
      185.5974766200        0.0415113222
       42.0875016200        0.1832849990
       11.6300369400        0.4683526005
        3.5840894779        0.4430601820
 s  1 1.0
        0.4029351893        1.0000000000
 s  1 1.0
        0.1309419451        1.0000000000
 p  3 1.0
        9.4821246358        0.0381720490
        2.0121097169        0.2099973699
        0.5481253660        0.5104097902
 p  1 1.0
        0.1527756940        1.0000000000
 d  1 1.0
        0.8000000000        1.0000000000
 
  4 0
 s  3 1.0
       13.0107010000        0.0196821580
        1.9622572000        0.1379652400
        0.4445379600        0.4783193500
 s  1 1.0
        0.1219496200        1.0000000000
 p  1 1.0
        0.8000000000        1.0000000000
 
  5 0
 s  3 1.0
       13.0107010000        0.0196821580
        1.9622572000        0.1379652400
        0.4445379600        0.4783193500
 s  1 1.0
        0.1219496200        1.0000000000
 p  1 1.0
        0.8000000000        1.0000000000
 
  6 0
 s  3 1.0
       13.0107010000        0.0196821580
        1.9622572000        0.1379652400
        0.4445379600        0.4783193500
 s  1 1.0
        0.1219496200        1.0000000000
 p  1 1.0
        0.8000000000        1.0000000000
 
  7 0
 s  3 1.0
       13.0107010000        0.0196821580
        1.9622572000        0.1379652400
        0.4445379600        0.4783193500
 s  1 1.0
        0.1219496200        1.0000000000
 p  1 1.0
        0.8000000000        1.0000000000
 
[5D]
[7F]
[9G]
[MO]
 Ene=  -0.29968214869290E+03
 Spin= Alpha
 Occup=    1.000000
   1      0.818526190594
   2      0.021779120635
   3     -0.005840458482
   4      0.008239372772
   5     -0.001093203435
   6      0.000002593968
   7     -0.000001733692
   8      0.000000400234
   9     -0.000071324714
  10      0.000047630859
  11     -0.000011175079
  12      0.000262393655
  13     -0.000175584149
  14      0.000041076788
  15     -0.000352018844
  16      0.000235622396
  17     -0.000055054174
  18      0.004087273497
  19     -0.002733815024
  20      0.000632352466
  21      0.000057040429
  22     -0.000025033270
  23      0.000020587100
  24     -0.000057055518
  25      0.000136817058
  26     -0.000217656692
  27      0.000094288420
  28     -0.000076843367
  29      0.000213474077
  30     -0.000511926626
  31     -0.000317191543
  32      0.000179338301
  33     -0.000185050574
  34      0.000531470452
  35     -0.001268908705
  36     -0.000000772546
  37     -0.000002280506
  38      0.000000903129
  39     -0.000000088552
  40     -0.000006205091
  41     -0.000006132212
  42     -0.000032728186
  43      0.000029386034
  44      0.000398588437
  45     -0.004675060737
  46      0.000356580754
  47     -0.000244780886
  48      0.000127498223
  49      0.001548784900
  50     -0.001070586015
  51      0.000742951939
  52      0.000094769099
  53     -0.000221715745
  54      0.000146654217
  55     -0.000055434730
  56      0.000173442788
  57      0.000029875817
  58      0.000393406507
  59     -0.004695435413
  60      0.000382218041
  61     -0.000247668858
  62     -0.000012920891
  63      0.001694894479
  64     -0.001102020898
  65     -0.000229399538
  66      0.000190143732
  67      0.000118151979
  68     -0.000085407846
  69     -0.000102814528
  70      0.000213143138
  71      0.000279957475
  72      0.000564339502
  73     -0.000063404287
  74      0.000058666808
  75     -0.000064055519
  76      0.000282799066
  77      0.000568200797
  78     -0.000074300573
  79      0.000042103198
  80     -0.000065590061
  81      0.000280293457
  82      0.000564297728
  83     -0.000089639855
  84      0.000044638193
  85      0.000039722788
  86      0.000284728508
  87      0.000570812317
  88     -0.000078012351
  89      0.000059306550
  90      0.000040944307
 Ene=  -0.29968214869290E+03
 Spin= Alpha
 Occup=    0.000000
   1      0.000000246618
   2      0.000000006562
   3     -0.000000001761
   4      0.000000002304
   5     -0.000000000309
   6     -0.000000001071
   7     -0.000000000000
   8      0.000000006869
   9      0.000000044008
  10      0.000000000008
  11     -0.000000282290
  12     -0.000000032892
  13     -0.000000000032
  14      0.000000211453
  15      0.000000008884
  16      0.000000000044
  17     -0.000000057759
  18     -0.000000003658
  19     -0.000000000493
  20      0.000000032152
  21     -0.000000000603
  22     -0.000000002242
  23      0.000000001918
  24      0.000000000334
  25     -0.000000000249
  26      0.000000000446
  27      0.000000001873
  28     -0.000000001454
  29     -0.000000000203
  30      0.000000000076
  31      0.000000003296
  32      0.000000012232
  33     -0.000000008331
  34     -0.000000001607
  35      0.000000001008
  36     -0.000000000124
  37      0.000000000067
  38     -0.000000000046
  39      0.000000000065
  40     -0.000000000185
  41     -0.000000000013
  42      0.000000000025
  43     -0.000000000220
  44      0.000000005277
  45     -0.000000052398
  46     -0.000000000444
  47      0.000000000196
  48      0.000000000563
  49      0.000000013050
  50     -0.000000009154
  51      0.000000010947
  52      0.000000000588
  53      0.000000000001
  54     -0.000000000045
  55     -0.000000000100
  56      0.000000000161
  57      0.000000000240
  58     -0.000000005049
  59      0.000000049791
  60      0.000000000475
  61     -0.000000000363
  62      0.000000000663
  63     -0.000000014513
  64      0.000000008901
  65      0.000000006323
  66     -0.000000000381
  67      0.000000000386
  68     -0.000000000175
  69     -0.000000000036
  70     -0.000000000010
  71      0.000000003150
  72      0.000000001703
  73     -0.000000000458
  74      0.000000000664
  75      0.000000000012
  76      0.000000003336
  77      0.000000001865
  78     -0.000000000793
  79      0.000000000136
  80     -0.000000000086
  81     -0.000000003106
  82     -0.000000001553
  83      0.000000000739
  84     -0.000000000127
  85      0.000000000177
  86     -0.000000003057
  87     -0.000000001373
  88      0.000000000356
  89     -0.000000000616
  90      0.000000000188
 Ene=  -0.36070633374912E+02
 Spin= Alpha
 Occup=    0.009987
   1      0.024363253835
   2     -0.080996528291
   3     -0.002027162455
   4      0.001907887775
   5     -0.000268963452
   6     -0.000000046688
   7      0.000000013141
   8      0.000000083752
   9      0.000009670376
  10     -0.000005714259
  11     -0.000002361963
  12      0.000047819834
  13     -0.000031963827
  14      0.000007245257
  15     -0.000072719654
  16      0.000048675579
  17     -0.000011422580
  18      0.000920137477
  19     -0.000615461831
  20      0.000142422167
  21      0.000006328377
  22     -0.000005039928
  23      0.000006367369
  24     -0.000018979106
  25      0.000045029587
  26     -0.000045566877
  27      0.000020459476
  28     -0.000017371952
  29      0.000048660125
  30     -0.000116543072
  31     -0.000072447183
  32      0.000040860176
  33     -0.000042042877
  34      0.000120640697
  35     -0.000288069951
  36     -0.000000100935
  37     -0.000000319229
  38      0.000000087694
  39     -0.000000040505
  40     -0.000001146100
  41     -0.000001158490
  42     -0.000006167878
  43      0.000006305462
  44      0.000087286973
  45     -0.001059756362
  46      0.000079801820
  47     -0.000054754314
  48      0.000028243720
  49      0.000348988785
  50     -0.000241008823
  51      0.000163860159
  52      0.000020541597
  53     -0.000047103997
  54      0.000030999832
  55     -0.000011296363
  56      0.000035726463
  57      0.000006408915
  58      0.000086087800
  59     -0.001064024106
  60      0.000085404057
  61     -0.000055373869
  62     -0.000002636178
  63      0.000380855741
  64     -0.000247819793
  65     -0.000048176920
  66      0.000040753733
  67      0.000025043939
  68     -0.000018265679
  69     -0.000021330315
  70      0.000044102875
  71      0.000063667289
  72      0.000131426938
  73     -0.000014528370
  74      0.000012429169
  75     -0.000013786681
  76      0.000064276659
  77      0.000132254162
  78     -0.000016159286
  79      0.000009942761
  80     -0.000014026088
  81      0.000063741527
  82      0.000131439305
  83     -0.000019436545
  84      0.000010497984
  85      0.000008388129
  86      0.000064696400
  87      0.000132830157
  88     -0.000017622535
  89      0.000012536728
  90      0.000008554632
 Ene=  -0.36070633374912E+02
 Spin= Alpha
 Occup=    0.990013
   1      0.242565434553
   2     -0.806417657460
   3     -0.020182837673
   4      0.018995333829
   5     -0.002677848312
   6     -0.000000285251
   7      0.000000130897
   8     -0.000000141592
   9      0.000088754116
  10     -0.000056895229
  11      0.000017393299
  12      0.000475842368
  13     -0.000318238098
  14      0.000074852019
  15     -0.000724142302
  16      0.000484624871
  17     -0.000113196797
  18      0.009161113770
  19     -0.006127673024
  20      0.001417898242
  21      0.000063033771
  22     -0.000050075579
  23      0.000063412644
  24     -0.000188975498
  25      0.000448323759
  26     -0.000453675983
  27      0.000203687648
  28     -0.000172985456
  29      0.000484471740
  30     -0.001160324260
  31     -0.000721309694
  32      0.000406783485
  33     -0.000418557393
  34      0.001201132202
  35     -0.002868093570
  36     -0.000001007075
  37     -0.000003177243
  38      0.000000869346
  39     -0.000000403460
  40     -0.000011426596
  41     -0.000011534429
  42     -0.000061405775
  43      0.000062782911
  44      0.000869041978
  45     -0.010551118429
  46      0.000794513568
  47     -0.000545153223
  48      0.000281266746
  49      0.003474596707
  50     -0.002399507926
  51      0.001631431120
  52      0.000204500892
  53     -0.000468980384
  54      0.000308644101
  55     -0.000112473600
  56      0.000355706818
  57      0.000063804301
  58      0.000857110796
  59     -0.010593697896
  60      0.000850291949
  61     -0.000551306669
  62     -0.000026179834
  63      0.003791891132
  64     -0.002467378283
  65     -0.000479654200
  66      0.000405765377
  67      0.000249334683
  68     -0.000181854673
  69     -0.000212362485
  70      0.000439089251
  71      0.000633863882
  72      0.001308506947
  73     -0.000144643076
  74      0.000123750263
  75     -0.000137257808
  76      0.000639935234
  77      0.001316763467
  78     -0.000160889943
  79      0.000098984143
  80     -0.000139645098
  81      0.000634639879
  82      0.001308621832
  83     -0.000193510598
  84      0.000104528297
  85      0.000083516415
  86      0.000644155650
  87      0.001322487645
  88     -0.000175459173
  89      0.000124814869
  90      0.000085175943
 Ene=  -0.31594416332502E+02
 Spin= Alpha
 Occup=    0.364050
   1     -0.000003036678
   2      0.000014413953
   3      0.000060013497
   4     -0.000570602813
   5     -0.000168193925
   6     -0.003833462255
   7      0.000171598089
   8      0.010483573844
   9      0.160506961718
  10     -0.007180045969
  11     -0.438941800477
  12     -0.000511621344
  13      0.000013590756
  14      0.001334044982
  15      0.003023523800
  16     -0.000163418173
  17     -0.008211883074
  18     -0.001255514653
  19      0.000359669108
  20      0.003174255304
  21     -0.000006203397
  22     -0.000018297422
  23      0.000011740182
  24      0.000002325850
  25     -0.000010116640
  26      0.000029729804
  27      0.000062574486
  28     -0.000041135381
  29     -0.000013767094
  30      0.000036156045
  31      0.000424679494
  32      0.001230369427
  33     -0.000840209563
  34     -0.000314083670
  35      0.000337483804
  36     -0.000028699510
  37      0.000010283588
  38     -0.000001820563
  39      0.000006970911
  40     -0.000017804691
  41      0.000001283544
  42      0.000003300930
  43     -0.000031996834
  44      0.000509375819
  45     -0.004386073935
  46     -0.000112625899
  47      0.000067916718
  48     -0.000022567902
  49      0.001104583758
  50     -0.000735023101
  51      0.000847315807
  52      0.000044446740
  53      0.000034874616
  54     -0.000028829454
  55     -0.000005063450
  56     -0.000011670258
  57      0.000024617107
  58     -0.000472654265
  59      0.005289711185
  60      0.000028184105
  61     -0.000027792454
  62      0.000013086032
  63     -0.001602181378
  64      0.001063808870
  65      0.000565486414
  66     -0.000043008740
  67      0.000040594710
  68     -0.000020975801
  69     -0.000019558017
  70      0.000022374169
  71      0.000260892994
  72      0.000155245331
  73     -0.000044939098
  74      0.000051833317
  75      0.000004458097
  76      0.000301617125
  77      0.000144884470
  78     -0.000058310957
  79      0.000009972301
  80      0.000002881437
  81     -0.000331702266
  82     -0.000131013161
  83      0.000068145580
  84     -0.000024992912
  85      0.000016938547
  86     -0.000374145866
  87     -0.000118044435
  88      0.000035038129
  89     -0.000050266759
  90      0.000012749762
 Ene=  -0.31594416332502E+02
 Spin= Alpha
 Occup=    0.635950
   1      0.000022428622
   2     -0.000100437783
   3     -0.000358247036
   4      0.003295268443
   5      0.001013324967
   6      0.012605969459
   7     -0.000984822666
   8      0.003237610150
   9     -0.527814785758
  10      0.041210641926
  11     -0.135558275605
  12      0.001723478909
  13     -0.000093320139
  14      0.000427275460
  15     -0.009997397830
  16      0.000934168674
  17     -0.002555926770
  18      0.004419873984
  19     -0.001942834891
  20      0.001092978232
  21      0.000006636205
  22     -0.000004934226
  23      0.000008498958
  24     -0.000001009792
  25      0.000045834783
  26     -0.000065482250
  27      0.000033497072
  28     -0.000031574187
  29      0.000031302269
  30     -0.000167026452
  31     -0.000378089659
  32      0.000399586100
  33     -0.000275536408
  34      0.000745525456
  35     -0.001127359801
  36      0.000002907268
  37      0.000016194794
  38     -0.000019401395
  39     -0.000004336208
  40      0.000002423846
  41     -0.000011067385
  42     -0.000000028698
  43      0.000019237792
  44     -0.000049606607
  45     -0.003230634577
  46      0.000234394171
  47     -0.000120627288
  48      0.000079529211
  49      0.000953118276
  50     -0.000978359927
  51      0.000673126459
  52      0.000053617560
  53     -0.000047771570
  54      0.000016195901
  55      0.000042756667
  56     -0.000011010731
  57      0.000026173866
  58     -0.000176560323
  59     -0.002028460263
  60      0.000263883084
  61     -0.000132494767
  62     -0.000001813958
  63      0.000745321199
  64     -0.000767472656
  65     -0.000211256114
  66      0.000063922413
  67      0.000035824261
  68     -0.000019317142
  69      0.000030026618
  70     -0.000002494044
  71      0.000354031188
  72     -0.000088948169
  73      0.000009444466
  74      0.000007578373
  75     -0.000013938829
  76      0.000147351904
  77     -0.000037626908
  78     -0.000038433067
  79      0.000041593099
  80     -0.000019914372
  81      0.000068708927
  82     -0.000072099022
  83     -0.000027735336
  84      0.000038371410
  85      0.000011611986
  86      0.000272727558
  87     -0.000127549603
  88      0.000016448545
  89     -0.000005966001
  90      0.000018862403
 Ene=  -0.31263789781821E+02
 Spin= Alpha
 Occup=    0.486517
   1      0.000004398609
   2     -0.000019237190
   3     -0.000061557072
   4      0.000587884780
   5      0.000178521521
   6      0.003843743475
   7     -0.001510722079
   8     -0.012459578481
   9     -0.160983442664
  10      0.063271683742
  11      0.521834488979
  12     -0.001514457412
  13      0.000595946464
  14      0.004933366888
  15     -0.002736323637
  16      0.001081925383
  17      0.008780342105
  18      0.001189770620
  19     -0.000524451348
  20     -0.003160846546
  21      0.000005244722
  22      0.000017000557
  23     -0.000011640698
  24     -0.000004943649
  25      0.000008108054
  26     -0.000027753894
  27     -0.000056559053
  28      0.000038265767
  29      0.000018773585
  30     -0.000031675609
  31     -0.000425330472
  32     -0.001222430464
  33      0.000826128286
  34      0.000267816888
  35     -0.000366441581
  36      0.000033245829
  37     -0.000009986609
  38      0.000002512531
  39     -0.000007109084
  40      0.000018415126
  41      0.000001045856
  42     -0.000003106181
  43      0.000032040884
  44     -0.000503644044
  45      0.004296465244
  46      0.000111816454
  47     -0.000075243680
  48      0.000022712343
  49     -0.001056497024
  50      0.000760118339
  51     -0.000821284966
  52     -0.000041352773
  53     -0.000037004096
  54      0.000030990730
  55     -0.000001230326
  56      0.000011010780
  57     -0.000024912024
  58      0.000463782051
  59     -0.005233696001
  60     -0.000034576808
  61      0.000024061562
  62     -0.000012425127
  63      0.001614771226
  64     -0.001014562303
  65     -0.000549595392
  66      0.000038124983
  67     -0.000043994769
  68      0.000020367282
  69      0.000017340758
  70     -0.000031323818
  71     -0.000276247734
  72     -0.000147946550
  73      0.000037913318
  74     -0.000049261906
  75     -0.000005734415
  76     -0.000276204998
  77     -0.000147895899
  78      0.000060473941
  79     -0.000014658198
  80     -0.000002984707
  81      0.000350975896
  82      0.000120959906
  83     -0.000063055337
  84      0.000020005078
  85     -0.000016172471
  86      0.000352684623
  87      0.000118662186
  88     -0.000040707061
  89      0.000050219353
  90     -0.000013852674
 Ene=  -0.31263789781821E+02
 Spin= Alpha
 Occup=    0.513483
   1      0.000034658138
   2     -0.000146180144
   3     -0.000411690583
   4      0.003804724014
   5      0.001202219350
   6      0.012856062938
   7     -0.008771977896
   8      0.004232265969
   9     -0.538434367599
  10      0.367385818060
  11     -0.177255817383
  12     -0.005042547651
  13      0.003441627767
  14     -0.001666650798
  15     -0.009239230447
  16      0.006301765133
  17     -0.003011494585
  18      0.004609076084
  19     -0.003127941300
  20      0.001286121771
  21      0.000003145324
  22     -0.000006886041
  23      0.000007576200
  24     -0.000016541741
  25      0.000039750435
  26     -0.000069886630
  27      0.000042153842
  28     -0.000032141163
  29      0.000067090005
  30     -0.000163911488
  31     -0.000440620007
  32      0.000456496381
  33     -0.000363884685
  34      0.000581927983
  35     -0.001439629615
  36      0.000005936542
  37      0.000030012171
  38     -0.000020342735
  39     -0.000005178153
  40      0.000002799878
  41      0.000000846494
  42      0.000002538172
  43      0.000019870178
  44     -0.000053289327
  45     -0.003854227078
  46      0.000241034733
  47     -0.000164824786
  48      0.000081716733
  49      0.001291218743
  50     -0.000914743222
  51      0.000817525008
  52      0.000062318238
  53     -0.000043397396
  54      0.000015811141
  55      0.000021211873
  56     -0.000041196333
  57      0.000029300107
  58     -0.000220874105
  59     -0.002255667606
  60      0.000277697737
  61     -0.000181388564
  62      0.000000434898
  63      0.000987002564
  64     -0.000629092984
  65     -0.000213987106
  66      0.000066623714
  67      0.000027140078
  68     -0.000030191446
  69      0.000010003997
  70     -0.000029171343
  71      0.000302177286
  72     -0.000077190625
  73     -0.000026575447
  74      0.000016783663
  75     -0.000020360410
  76      0.000301602461
  77     -0.000077781213
  78     -0.000024236784
  79      0.000019863122
  80     -0.000019943245
  81      0.000196616291
  82     -0.000121632133
  83     -0.000009349664
  84      0.000015508894
  85      0.000018356795
  86      0.000194957856
  87     -0.000122815465
  88     -0.000017383138
  89     -0.000000776687
  90      0.000016323090
 Ene=  -0.31254843562672E+02
 Spin= Alpha
 Occup=    0.264275
   1      0.000003597934
   2     -0.000015503323
   3     -0.000046860567
   4      0.000447462196
   5      0.000137146958
   6      0.001285954462
   7     -0.003218254846
   8     -0.007657068913
   9     -0.053854019969
  10      0.134795158599
  11      0.320698076578
  12     -0.000550628124
  13      0.001292430459
  14      0.003139636352
  15     -0.000933433721
  16      0.002253939625
  17      0.005377483096
  18      0.000671733189
  19     -0.000637292018
  20     -0.001904867698
  21      0.000002862705
  22      0.000008922791
  23     -0.000007337053
  24     -0.000009051527
  25      0.000003500456
  26     -0.000018221129
  27     -0.000031564948
  28      0.000023218564
  29      0.000023802600
  30     -0.000018434003
  31     -0.000269716416
  32     -0.000741271235
  33      0.000485705058
  34      0.000094570488
  35     -0.000291341690
  36      0.000020916240
  37     -0.000003718872
  38      0.000003191920
  39     -0.000004041092
  40      0.000010743998
  41      0.000005414879
  42     -0.000002631851
  43      0.000019917623
  44     -0.000306662275
  45      0.002512123351
  46      0.000067611746
  47     -0.000058847425
  48      0.000015010422
  49     -0.000564374208
  50      0.000506796534
  51     -0.000472722318
  52     -0.000023342823
  53     -0.000023273591
  54      0.000020792034
  55     -0.000009422555
  56      0.000001682287
  57     -0.000014411316
  58      0.000276029055
  59     -0.003228094267
  60     -0.000020389413
  61      0.000001027142
  62     -0.000008242524
  63      0.001046711519
  64     -0.000561852575
  65     -0.000332542501
  66      0.000024180142
  67     -0.000028741530
  68      0.000008655088
  69      0.000002283910
  70     -0.000023339001
  71     -0.000194283357
  72     -0.000082347273
  73      0.000011940877
  74     -0.000027026609
  75     -0.000005392468
  76     -0.000126178542
  77     -0.000100977643
  78      0.000042311990
  79     -0.000017128966
  80     -0.000001314633
  81      0.000251711652
  82      0.000061313028
  83     -0.000032161299
  84      0.000003833840
  85     -0.000008179247
  86      0.000184869910
  87      0.000079396343
  88     -0.000035713977
  89      0.000032898346
  90     -0.000009544024
 Ene=  -0.31254843562672E+02
 Spin= Alpha
 Occup=    0.735725
   1     -0.000015822577
   2      0.000066444036
   3      0.000183092333
   4     -0.001698497077
   5     -0.000537156773
   6     -0.001035114230
   7      0.011065792212
   8     -0.001758609460
   9      0.043335732996
  10     -0.463485480003
  11      0.073652842426
  12      0.000492654364
  13     -0.004432512188
  14      0.000726195297
  15      0.000841321907
  16     -0.007760057290
  17      0.001253535493
  18     -0.001494902920
  19      0.002230884753
  20     -0.000616688272
  21     -0.000000211451
  22      0.000006076193
  23     -0.000002208432
  24      0.000026957988
  25     -0.000009698240
  26      0.000029875800
  27     -0.000025735011
  28      0.000012781511
  29     -0.000066829274
  30      0.000057022213
  31      0.000189623123
  32     -0.000207562641
  33      0.000212758638
  34      0.000025511479
  35      0.000756686307
  36     -0.000003341368
  37     -0.000019397699
  38      0.000001843116
  39      0.000000703833
  40      0.000001098450
  41     -0.000016620996
  42      0.000001519401
  43     -0.000007939187
  44      0.000008193920
  45      0.001876504736
  46     -0.000084488838
  47      0.000103470677
  48     -0.000033547797
  49     -0.000771157331
  50      0.000204834910
  51     -0.000413552180
  52     -0.000030058721
  53      0.000017395221
  54     -0.000011483796
  55      0.000021682536
  56      0.000033008363
  57     -0.000014009035
  58      0.000113821079
  59      0.000856127894
  60     -0.000105882004
  61      0.000114308110
  62      0.000001866396
  63     -0.000544917508
  64      0.000018101943
  65      0.000060037594
  66     -0.000027331731
  67     -0.000004465289
  68      0.000024514212
  69      0.000025149987
  70      0.000024302161
  71     -0.000028785285
  72     -0.000001128242
  73      0.000048776996
  74     -0.000017412051
  75      0.000013837352
  76     -0.000261449712
  77      0.000062792829
  78     -0.000008488154
  79      0.000020371042
  80      0.000005531475
  81     -0.000194504188
  82      0.000089758180
  83     -0.000019240915
  84      0.000023277996
  85     -0.000012888742
  86      0.000038254506
  87      0.000023387755
  88      0.000042909919
  89     -0.000006568226
  90     -0.000002596103
 Ene=  -0.10234169935348E+02
 Spin= Alpha
 Occup=    0.995129
   1      0.000027091639
   2     -0.000054643389
   3      0.000507663490
   4      0.007525613084
   5     -0.000961225977
   6      0.000001026959
   7     -0.000000835396
   8      0.000002006329
   9      0.000016971308
  10     -0.000011215285
  11      0.000001343769
  12     -0.000127391537
  13      0.000080759789
  14      0.000031037830
  15      0.000280368936
  16     -0.000179194991
  17     -0.000052256399
  18      0.001647238781
  19     -0.001247715071
  20      0.002023737269
  21     -0.000101094249
  22      0.000112045911
  23     -0.000089598313
  24      0.000140757564
  25     -0.000348871818
  26      0.000418709638
  27     -0.000393695399
  28      0.000316494212
  29     -0.000548352982
  30      0.001350222901
  31      0.000727627331
  32      0.000536148448
  33     -0.000392493878
  34     -0.000341767870
  35      0.000670417479
  36      0.000030841591
  37      0.000016773076
  38     -0.000009050762
  39     -0.000015557445
  40      0.000061821546
  41      0.000030525260
  42      0.000145674723
  43      0.840612068412
  44      0.040540801661
  45     -0.033346068268
  46     -0.000247434910
  47      0.000006755677
  48      0.001899637142
  49      0.002031406763
  50     -0.001523050862
  51      0.002612120872
  52     -0.000108628497
  53      0.000672522915
  54     -0.000321023908
  55     -0.000551527890
  56      0.001148895235
  57      0.487250812758
  58      0.021962718058
  59     -0.007784143986
  60      0.000145332018
  61      0.000129911821
  62     -0.002726162966
  63      0.000739370133
  64     -0.000715679126
  65      0.002491088966
  66     -0.001141089113
  67     -0.000185455549
  68      0.000324076291
  69     -0.000183882914
  70      0.000464410224
  71     -0.004671796701
  72      0.006644524012
  73      0.001228395940
  74      0.001538680827
  75      0.000765355469
  76     -0.004658916738
  77      0.006659277961
  78     -0.000970952385
  79     -0.001809467001
  80      0.000490784487
  81     -0.002897523090
  82      0.003531690007
  83     -0.000500944775
  84     -0.000929345578
  85     -0.000268999349
  86     -0.002873175552
  87      0.003553751852
  88      0.000659857316
  89      0.000856387988
  90     -0.000119805842
 Ene=  -0.10234169935348E+02
 Spin= Alpha
 Occup=    0.004871
   1     -0.000001893332
   2      0.000003818364
   3     -0.000035481131
   4     -0.000526517828
   5      0.000067237673
   6     -0.000000071727
   7      0.000000058442
   8     -0.000000141282