[Molden Format]
[Title]
generated by TRESC, imaginary part2 of MOs of job Ni0-C2H4
 
[Atoms] AU
Ni   1  28    2.0327243480    6.6651129323   -0.4637853482
 C   2   6    4.4866582262    4.9116344944    1.3008835560
 C   3   6    4.8771137450    4.8741236186   -1.3947805326
 H   4   1    5.7310700770    6.0706468704    2.4997637439
 H   5   1    3.8369470533    3.1858198160    2.2645095603
 H   6   1    4.5308414173    3.1179949920   -2.4558991994
 H   7   1    6.4130479072    6.0088908466   -2.2212746715
[GTO]
  1 0
 s  6 1.0
   105040.0623800000        0.0035171970
    13968.3586480000        0.0173391066
     2940.9041687000        0.0741624358
      786.1020253800        0.2530654570
      245.2580996100        0.5385985895
       81.4764798070        0.4440458912
 s  3 1.0
      156.2637962600       -0.1055600427
       18.1782549770        0.6426665159
        7.4444231636        0.4714885202
 s  3 1.0
       12.9345647400       -0.2291772139
        2.1221056648        0.7395224896
        0.8740880520        0.4584156000
 s  1 1.0
        0.1104545011        1.0000000000
 s  1 1.0
        0.0401880342        1.0000000000
 p  6 1.0
     2356.4518106000       -0.0000855328
      513.4513882300       -0.0005420978
      158.2013335400       -0.0024494945
       57.5500069520       -0.0071523316
       22.5659922940       -0.0118148309
        9.0452780395       -0.0071547652
 p  5 1.0
     1045.8514156000        0.0092908253
      234.8058471900        0.0670834485
       72.4328268820        0.2652923948
       25.6138643320        0.5353100645
        9.4079524620        0.3595935862
 p  1 1.0
        6.9922696496        1.0000000000
 p  3 1.0
        4.8001460600        0.3535617403
        1.8423116558        0.5937621194
        0.6865826193        0.2491809881
 p  1 1.0
        0.1465880000        1.0000000000
 d  4 1.0
       47.9675640250        0.0288745010
       13.3221273820        0.1553500110
        4.4560102246        0.3821354899
        1.4827299619        0.4857955113
 d  1 1.0
        0.4362198809        1.0000000000
 d  1 1.0
        0.1200000000        1.0000000000
 f  1 1.0
        2.1740000000        1.0000000000
 
  2 0
 s  5 1.0
     1231.7975026000        0.0058423196
      185.5974766200        0.0415113222
       42.0875016200        0.1832849990
       11.6300369400        0.4683526005
        3.5840894779        0.4430601820
 s  1 1.0
        0.4029351893        1.0000000000
 s  1 1.0
        0.1309419451        1.0000000000
 p  3 1.0
        9.4821246358        0.0381720490
        2.0121097169        0.2099973699
        0.5481253660        0.5104097902
 p  1 1.0
        0.1527756940        1.0000000000
 d  1 1.0
        0.8000000000        1.0000000000
 
  3 0
 s  5 1.0
     1231.7975026000        0.0058423196
      185.5974766200        0.0415113222
       42.0875016200        0.1832849990
       11.6300369400        0.4683526005
        3.5840894779        0.4430601820
 s  1 1.0
        0.4029351893        1.0000000000
 s  1 1.0
        0.1309419451        1.0000000000
 p  3 1.0
        9.4821246358        0.0381720490
        2.0121097169        0.2099973699
        0.5481253660        0.5104097902
 p  1 1.0
        0.1527756940        1.0000000000
 d  1 1.0
        0.8000000000        1.0000000000
 
  4 0
 s  3 1.0
       13.0107010000        0.0196821580
        1.9622572000        0.1379652400
        0.4445379600        0.4783193500
 s  1 1.0
        0.1219496200        1.0000000000
 p  1 1.0
        0.8000000000        1.0000000000
 
  5 0
 s  3 1.0
       13.0107010000        0.0196821580
        1.9622572000        0.1379652400
        0.4445379600        0.4783193500
 s  1 1.0
        0.1219496200        1.0000000000
 p  1 1.0
        0.8000000000        1.0000000000
 
  6 0
 s  3 1.0
       13.0107010000        0.0196821580
        1.9622572000        0.1379652400
        0.4445379600        0.4783193500
 s  1 1.0
        0.1219496200        1.0000000000
 p  1 1.0
        0.8000000000        1.0000000000
 
  7 0
 s  3 1.0
       13.0107010000        0.0196821580
        1.9622572000        0.1379652400
        0.4445379600        0.4783193500
 s  1 1.0
        0.1219496200        1.0000000000
 p  1 1.0
        0.8000000000        1.0000000000
 
[5D]
[7F]
[9G]
[MO]
 Ene=   0.68923921265349E+00
 Spin= Alpha
 Occup=    0.000000
   1     -0.000016646156
   2      0.000028115062
   3     -0.000325788990
   4      0.012533038316
   5     -0.003663467316
   6      0.000005804577
   7     -0.000002964846
   8     -0.000002087803
   9     -0.000141365803
  10      0.000059498625
  11      0.000044717532
  12     -0.000007019921
  13      0.000002916861
  14      0.000003598992
  15      0.000469131230
  16     -0.000196288609
  17     -0.000148464642
  18      0.004256846992
  19     -0.001512893621
  20      0.001654017267
  21     -0.000980239329
  22     -0.004476210817
  23     -0.006986486154
  24      0.000216087504
  25      0.001386787247
  26     -0.004126585410
  27     -0.017688962791
  28     -0.027571108538
  29      0.003837751682
  30      0.003210882537
  31      0.005118543120
  32      0.011660379443
  33      0.018032792920
  34     -0.001594630798
  35     -0.002384482403
  36     -0.000010581968
  37     -0.000069098216
  38     -0.000019336932
  39     -0.000237067536
  40     -0.000105244710
  41      0.000057153765
  42     -0.000023852374
  43     -0.001387697602
  44      0.010415372848
  45     -0.020615163110
  46     -0.384263164415
  47     -0.582269740774
  48     -0.041950717151
  49      0.619322037901
  50      0.934468622886
  51      0.067104043727
  52      0.007169818491
  53      0.034030202894
  54      0.047044165106
  55      0.038078544014
  56      0.011694759741
  57     -0.002357963816
  58      0.016616116176
  59     -0.043660698245
  60      0.386561007665
  61      0.584806733409
  62      0.043774131722
  63     -0.618233420074
  64     -0.941481468416
  65     -0.071986186684
  66      0.005600587803
  67      0.022275414127
  68      0.040624678572
  69     -0.047569476018
  70     -0.025013474507
  71      0.351324813210
  72     -0.851312030792
  73      0.047369177879
  74      0.026981254262
  75      0.077272574910
  76     -0.355054110174
  77      0.870358016181
  78      0.012120670611
  79      0.063781740210
  80     -0.070063623849
  81      0.349469796934
  82     -0.849182113572
  83      0.009092383201
  84     -0.064638955786
  85     -0.068206985777
  86     -0.355977507001
  87      0.879456778536
  88     -0.069016118730
  89     -0.026596419903
  90      0.061597752562
 Ene=   0.71580126227523E+00
 Spin= Alpha
 Occup=    0.000000
   1     -0.000036939596
   2      0.000099382827
   3     -0.000578759385
   4      0.004299389464
   5     -0.000073057629
   6      0.000000468614
   7      0.000003346971
   8     -0.000001660139
   9      0.000099299192
  10     -0.000026548961
  11      0.000078497471
  12      0.000197026507
  13      0.000249474314
  14     -0.000095006417
  15     -0.000860807825
  16     -0.000647714133
  17     -0.000177554668
  18      0.036917670101
  19      0.049541179971
  20      0.006658389168
  21     -0.000027574237
  22      0.000313177333
  23     -0.000124853474
  24      0.000463359597
  25     -0.000012721098
  26      0.000191466547
  27      0.001386121908
  28      0.000901846179
  29      0.011101492461
  30      0.004834858505
  31      0.000401648652
  32      0.005722297649
  33      0.001649329729
  34      0.032117305837
  35      0.011871491998
  36      0.000011737506
  37      0.000024733809
  38      0.000048338600
  39     -0.000023859866
  40      0.000002628053
  41     -0.000037643208
  42      0.000016387869
  43     -0.000232465998
  44      0.002690590064
  45     -0.005018219093
  46      0.080813359163
  47      0.122413221176
  48      0.017189651368
  49     -0.118058413642
  50     -0.183934177283
  51     -0.025823013238
  52     -0.000987612712
  53     -0.007166922880
  54     -0.009483584199
  55     -0.008569718282
  56     -0.003165341494
  57      0.000054186096
  58     -0.000732257165
  59     -0.005628473323
  60      0.080949488955
  61      0.121770393469
  62      0.016612874060
  63     -0.117913520748
  64     -0.182958490942
  65     -0.025604735859
  66      0.000586191293
  67      0.004307992351
  68      0.008107808063
  69     -0.010660681934
  70     -0.005167146035
  71     -0.008661369183
  72      0.155980109839
  73     -0.015746636041
  74     -0.007361474732
  75     -0.004835857006
  76      0.005541104648
  77     -0.143782489856
  78     -0.000398990330
  79     -0.016938144124
  80      0.002942596409
  81      0.008440499312
  82     -0.152781281817
  83      0.000176260115
  84     -0.017748794598
  85     -0.002308514681
  86     -0.005578996942
  87      0.145850663917
  88     -0.015866860332
  89     -0.006714205070
  90      0.000529636549
 Ene=   0.71580126227525E+00
 Spin= Alpha
 Occup=    0.000000
   1     -0.000333002650
   2      0.000913701455
   3     -0.005148117063
   4      0.027440343151
   5     -0.000323914032
   6     -0.000005467926
   7      0.000027057970
   8     -0.000003506157
   9      0.001023926475
  10     -0.000395230725
  11      0.000190259426
  12      0.001219563824
  13      0.001632168115
  14      0.000172828255
  15     -0.006814297158
  16     -0.003501406032
  17     -0.001079233141
  18      0.247933926622
  19      0.322725299358
  20      0.029474715428
  21     -0.000923880715
  22      0.001011029973
  23     -0.000078906944
  24      0.003611859083
  25     -0.001249916892
  26      0.002015032031
  27      0.009311021608
  28      0.006088057647
  29      0.072239478324
  30      0.033075697490
  31     -0.002631710905
  32      0.031584131597
  33      0.014688632257
  34      0.214108719910
  35      0.071730539779
  36      0.000074748026
  37      0.000200409732
  38      0.000285946444
  39     -0.000129366331
  40     -0.000030601649
  41     -0.000236730276
  42      0.000193221349
  43     -0.000250194643
  44      0.002178624429
  45     -0.025611482547
  46      0.545191973452
  47      0.798345358079
  48      0.072700157199
  49     -0.794038747273
  50     -1.201936098856
  51     -0.103899648983
  52     -0.009404006577
  53     -0.046344961006
  54     -0.062327828188
  55     -0.056845591895
  56     -0.019643794675
  57     -0.000246600761
  58      0.002998321269
  59     -0.042685381509
  60      0.540932753024
  61      0.795627386507
  62      0.065785939466
  63     -0.781332394352
  64     -1.200167247353
  65     -0.102404953140
  66      0.006762101503
  67      0.028655394721
  68      0.052327272571
  69     -0.069333021541
  70     -0.035378956997
  71     -0.052569459850
  72      0.996211599450
  73     -0.101557596989
  74     -0.046660835171
  75     -0.032162320114
  76      0.041725145836
  77     -0.973921986867
  78     -0.003421036850
  79     -0.113629940038
  80      0.018783522989
  81      0.041551942509
  82     -0.969596110146
  83      0.002130429953
  84     -0.113693549862
  85     -0.015235728264
  86     -0.049372244371
  87      0.988634028822
  88     -0.106157246150
  89     -0.045992526749
  90      0.002811652766
 Ene=   0.71613951447282E+00
 Spin= Alpha
 Occup=    0.000000
   1      0.000097275377
   2     -0.000279615702
   3      0.001454204404
   4     -0.000055408332
   5     -0.000234938822
   6      0.000007907325
   7     -0.000004386349
   8      0.000001545773
   9     -0.000316460108
  10      0.000240733216
  11     -0.000082944629
  12      0.000035887506
  13      0.000236734012
  14      0.000411725005
  15      0.000933068592
  16     -0.001248192504
  17     -0.000260870153
  18      0.007018823574
  19      0.018956346089
  20     -0.001621248539
  21      0.000353616979
  22     -0.000359606386
  23      0.000323851916
  24     -0.000262029359
  25      0.001060544766
  26     -0.000510496125
  27      0.000907626991
  28      0.000069210180
  29      0.004100813827
  30      0.000183604862
  31      0.003072759007
  32     -0.000972886217
  33      0.002324027133
  34      0.007710124459
  35      0.009627587250
  36     -0.000006218211
  37     -0.000013033890
  38      0.000026813822
  39      0.000001978308
  40     -0.000028387908
  41     -0.000027977877
  42     -0.000068620835
  43      0.000064331708
  44     -0.000020202248
  45      0.006330664333
  46      0.020994437532
  47      0.042298674924
  48     -0.006820436258
  49     -0.036482985964
  50     -0.059422028335
  51      0.006336161464
  52     -0.000670656860
  53     -0.001634029026
  54     -0.003261883616
  55     -0.003051252550
  56     -0.000362191438
  57     -0.000655136315
  58      0.006835054849
  59     -0.005160156354
  60      0.019448687308
  61      0.042077082178
  62     -0.004570954792
  63     -0.034918354093
  64     -0.059035538294
  65      0.007992896057
  66      0.000890326202
  67      0.000837108079
  68      0.002683592210
  69     -0.003218577297
  70     -0.001724771281
  71      0.003553957910
  72      0.038530250259
  73     -0.004294635147
  74     -0.001681035140
  75     -0.001396663480
  76      0.008130867186
  77     -0.055706640922
  78     -0.000430946719
  79     -0.006192469868
  80      0.000975403287
  81      0.004052925147
  82     -0.041415626801
  83      0.000240026502
  84     -0.005067642711
  85     -0.000841180402
  86      0.000399700320
  87      0.050713360290
  88     -0.005245091157
  89     -0.002396254060
  90     -0.000133263301
 Ene=   0.71613951447283E+00
 Spin= Alpha
 Occup=    0.000000
   1     -0.002991051369
   2      0.008570069051
   3     -0.044822840743
   4      0.018634618923
   5      0.006113697427
   6     -0.000228697302
   7      0.000147339862
   8     -0.000034993454
   9      0.010040191560
  10     -0.006870316834
  11      0.001538448309
  12      0.000438944520
  13     -0.001985474024
  14      0.000148234751
  15     -0.033879273883
  16      0.026497425748
  17     -0.005300336250
  18      0.066611228466
  19     -0.185334652045
  20      0.011805445274
  21     -0.012396549922
  22      0.005193276433
  23     -0.004587184089
  24      0.012026286778
  25     -0.031393414200
  26      0.017775224110
  27     -0.010549063248
  28      0.004347065958
  29     -0.037935774363
  30      0.030440243450
  31     -0.097498719631
  32      0.028981180426
  33     -0.031099480866
  34      0.011360431045
  35     -0.195129992485
  36      0.000246405948
  37      0.000623646364
  38     -0.000515247338
  39     -0.000073983799
  40      0.000533002206
  41      0.000503292186
  42      0.002167721707
  43      0.008638103100
  44     -0.098713598255
  45     -0.033651148809
  46      0.024745075273
  47     -0.351263767353
  48      0.042168940416
  49      0.126338649003
  50      0.409446516870
  51      0.039899960651
  52     -0.005025798145
  53      0.002706324462
  54      0.024827370473
  55      0.020913379958
  56     -0.002767123095
  57      0.008307598052
  58     -0.096108280822
  59     -0.037353436560
  60      0.038106440683
  61     -0.351855906306
  62     -0.030129111387
  63      0.127329980513
  64      0.407529949360
  65     -0.003056979574
  66     -0.002577908829
  67      0.005687563201
  68     -0.024271371094
  69      0.021315392090
  70      0.004275664034
  71     -0.105876709930
  72     -0.221905279581
  73      0.025084729722
  74      0.009187549905
  75      0.004765316769
  76     -0.130313435795
  77      0.339826164835
  78      0.003400760055
  79      0.038255974443
  80     -0.008839854046
  81     -0.133111695314
  82      0.345006076752
  83      0.000840034414
  84      0.038937728348
  85      0.008230836137
  86     -0.107883940701
  87     -0.213843148086
  88      0.025028973473
  89      0.008756713993
  90      0.002399603193
 Ene=   0.72799851537479E+00
 Spin= Alpha
 Occup=    0.000000
   1      0.003403897362
   2     -0.008855258154
   3      0.054504501172
   4     -0.572269918801
   5     -0.010326800947
   6      0.000034042354
   7     -0.000032617277
   8      0.000130910885
   9     -0.005253268725
  10      0.003909877594
  11     -0.005743775883
  12     -0.000582546243
  13      0.000364102525
  14     -0.000617098960
  15      0.018352728352
  16     -0.013614374943
  17      0.020368705749
  18     -0.342281857630
  19      0.244605053143
  20     -0.217192431019
  21      0.002405860959
  22     -0.016132018713
  23      0.010904147276
  24     -0.002267753690
  25      0.008435317839
  26      0.007519556977
  27     -0.000272332654
  28     -0.000154926185
  29     -0.003446677265
  30      0.008936524058
  31     -0.044900986678
  32     -0.080190426428
  33      0.066069330103
  34     -0.028051269658
  35      0.085582793579
  36      0.000009106945
  37      0.000717935131
  38     -0.000561794074
  39      0.000219159676
  40     -0.000672516449
  41     -0.000003706132
  42      0.000333271818
  43      0.019438447792
  44     -0.274699483796
  45      0.657260140329
  46      0.039091455427
  47      0.013191417852
  48     -0.424582163031
  49     -0.285851152734
  50      0.128021446653
  51      0.671009381189
  52     -0.029647044478
  53      0.000081068791
  54      0.004658759048
  55     -0.004794234195
  56      0.010810586072
  57      0.017728823192
  58     -0.152991507463
  59      0.827474667864
  60     -0.023384654126
  61      0.055775457591
  62     -0.401757933237
  63     -0.129605127664
  64      0.024511379683
  65      0.587953425371
  66      0.032917475708
  67      0.009900089600
  68     -0.011453876740
  69      0.003094809478
  70     -0.010523360167
  71     -0.039936552815
  72     -0.378707707905
  73      0.014301533521
  74      0.021812007642
  75     -0.005161457603
  76     -0.039339987355
  77     -0.385392699605
  78     -0.013743285289
  79     -0.021987805327
  80     -0.008690681923
  81     -0.179671745015
  82      0.105063227750
  83      0.001367879643
  84      0.022318794618
  85     -0.004468212596
  86     -0.180692776592
  87      0.118836305508
  88     -0.020750820275
  89     -0.010319499683
  90     -0.006741433251
 Ene=   0.72799851537479E+00
 Spin= Alpha
 Occup=    0.000000
   1     -0.004655051810
   2      0.012067892814
   3     -0.074703827423
   4      0.807218749212
   5      0.013842665702
   6     -0.000051129417
   7      0.000039799717
   8     -0.000080339952
   9      0.007481290272
  10     -0.005212598490
  11      0.004004474872
  12      0.000869717108
  13     -0.000110600865
  14      0.000638757410
  15     -0.026249610887
  16      0.017635802958
  17     -0.014438726363
  18      0.498518453613
  19     -0.338823929320
  20      0.171658777724
  21     -0.006057819739
  22      0.010866830131
  23     -0.007233750368
  24      0.004190017136
  25     -0.011670832175
  26     -0.010743498982
  27      0.002770229812
  28     -0.001379352941
  29      0.006358649389
  30     -0.013976287790
  31      0.049913899118
  32      0.045726541434
  33     -0.046540461066
  34      0.047481315387
  35     -0.118985896411
  36     -0.000198327852
  37     -0.000885428388
  38      0.000652163669
  39     -0.000025841330
  40      0.000242542613
  41     -0.000059923556
  42     -0.000447159631
  43     -0.027244536330
  44      0.342082453600
  45     -0.999231050143
  46      0.016001129304
  47     -0.025171893727
  48      0.260273553210
  49      0.259793809396
  50     -0.149002385971
  51     -0.414051354900
  52      0.019488768952
  53      0.009325661398
  54     -0.009621003725
  55      0.000687190216
  56     -0.004659044555
  57     -0.026177289428
  58      0.271785485892
  59     -1.094479257022
  60      0.054094276143
  61     -0.052368379080
  62      0.223476055738
  63      0.160720068246
  64     -0.083419708162
  65     -0.274798479001
  66     -0.021420451237
  67     -0.015329418009
  68      0.013451805340
  69     -0.001135539757
  70      0.005238732339
  71      0.121029782504
  72      0.335027087647
  73     -0.006052961482
  74     -0.017748662972
  75      0.004476730643
  76      0.120273772158
  77      0.323380310642
  78      0.013329688828
  79      0.010719818232
  80      0.007329269257
  81      0.200228644759
  82      0.046373454208
  83      0.005234139169
  84     -0.014366543987
  85      0.002135421942
  86      0.201160703278
  87      0.047544106981
  88      0.014492092936
  89      0.000764238445
  90      0.002872464670
 Ene=   0.72850929971305E+00
 Spin= Alpha
 Occup=    0.000000
   1     -0.000108635449
   2      0.000260883799
   3     -0.001824650899
   4      0.030796802585
   5      0.000185446267
   6     -0.000004867361
   7     -0.000001177302
   8      0.000056452883
   9      0.000370778939
  10     -0.000068101760
  11     -0.002166565866
  12      0.000065350682
  13      0.000091323339
  14     -0.000556945466
  15     -0.001360377350
  16      0.000099744185
  17      0.008124006488
  18      0.027917200101
  19     -0.010536706893
  20     -0.068812301639
  21     -0.001766877321
  22     -0.006171628779
  23      0.004234900701
  24      0.000765065501
  25     -0.000457764386
  26     -0.000429045378
  27      0.001329708812
  28     -0.000903396967
  29      0.000849767877
  30     -0.001196958160
  31     -0.006064419948
  32     -0.035908467431
  33      0.024246355709
  34      0.006189377116
  35     -0.004483551841
  36     -0.000113609632
  37      0.000041804965
  38     -0.000057258255
  39      0.000158207984
  40     -0.000388281951
  41     -0.000035574595
  42      0.000006342717
  43     -0.001198894016
  44     -0.010544160488
  45     -0.085103519250
  46      0.040074101524
  47     -0.006647496807
  48     -0.177633217217
  49     -0.069679083900
  50      0.014859081694
  51      0.280741053169
  52     -0.011680371427
  53      0.005638072677
  54     -0.001936676455
  55     -0.003189060350
  56      0.005679090371
  57     -0.001290971975
  58      0.038813375011
  59      0.005739201385
  60      0.013624018791
  61      0.011217468129
  62     -0.181860089920
  63     -0.004700689581
  64     -0.028950357365
  65      0.298258037481
  66      0.013065974507
  67     -0.001316268370
  68     -0.001078856778
  69      0.001835885758
  70     -0.005069456313
  71      0.039849526641
  72     -0.097535631000
  73      0.007713295569
  74      0.006545449617
  75     -0.001390235865
  76      0.039682809046
  77     -0.106227237321
  78     -0.002812023906
  79     -0.010519868500
  80     -0.002549308402
  81     -0.021905069755
  82      0.109338009259
  83      0.004148011494
  84      0.009029604392
  85     -0.002266961309
  86     -0.022491611147
  87      0.118405425601
  88     -0.007431862081
  89     -0.007515370725
  90     -0.003568898367
 Ene=   0.72850929971306E+00
 Spin= Alpha
 Occup=    0.000000
   1      0.005085361595
   2     -0.013192064928
   3      0.081577349656
   4     -0.874335403129
   5     -0.015409620337
   6      0.000082203157
   7     -0.000048017058
   8     -0.000072666494
   9     -0.009159939400
  10      0.005852899337
  11      0.001893524046
  12     -0.001144654655
  13      0.000267802213
  14      0.000329988223
  15      0.032301204339
  16     -0.020017723371
  17     -0.006976603362
  18     -0.570948952895
  19      0.373575460028
  20      0.020853978170
  21      0.011854775179
  22      0.006007196905
  23     -0.004243729977
  24     -0.007307914029
  25      0.015315827481
  26      0.010440998276
  27     -0.005644962452
  28      0.003566071322
  29     -0.005814830178
  30      0.014344230528
  31     -0.024145445835
  32      0.051703713023
  33     -0.018959492116
  34     -0.065480545408
  35      0.143802423155
  36      0.000482862015
  37      0.000700817952
  38     -0.000441255941
  39     -0.000402799827
  40      0.000784590167
  41      0.000117918814
  42      0.000241445282
  43      0.028495833401
  44     -0.292112465566
  45      1.200541676676
  46     -0.131141875113
  47      0.066161221313
  48      0.234970695620
  49     -0.068062639155
  50      0.079501855895
  51     -0.375674617415
  52      0.013747445883
  53     -0.024760467735
  54      0.013079394919
  55      0.006827843005
  56     -0.010995402049
  57      0.028481474385
  58     -0.365402965059
  59      1.059756512840
  60     -0.095953840671
  61      0.044334288372
  62      0.286344484789
  63     -0.150265225383
  64      0.134413795852
  65     -0.553597937327
  66     -0.014977474708
  67      0.018100072250
  68     -0.008465345104
  69     -0.005388449478
  70      0.008654971560
  71     -0.220734164525
  72     -0.040593685837
  73     -0.017166467189
  74     -0.001480974485
  75     -0.000851017316
  76     -0.218827151532
  77     -0.038697900088
  78     -0.005381486899
  79      0.016414494488
  80      0.000407440330
  81     -0.125174884708
  82     -0.370374378030
  83     -0.016638973552
  84     -0.013577759171
  85      0.003547590493
  86     -0.126028178668
  87     -0.361407242265
  88      0.004796698784
  89      0.019501587898
  90      0.006890838962
 Ene=   0.95553867831086E+00
 Spin= Alpha
 Occup=    0.000000
   1      0.000014485322
   2     -0.000039384705
   3      0.000225171627
   4     -0.001854061167
   5     -0.000257347406
   6     -0.000001679679
   7      0.000000166236
   8      0.000016607425
   9     -0.000141437582
  10      0.000039479739
  11      0.000664968927
  12     -0.000000898416
  13      0.000495876021
  14     -0.000009423427
  15      0.000463838426
  16     -0.000801621550
  17     -0.002164012675
  18     -0.008373113838
  19      0.002167481559
  20      0.046669840496
  21      0.000559172991
  22      0.002027026799
  23     -0.002516783526
  24     -0.000408561309
  25      0.000464222966
  26      0.000708319576
  27      0.000935644726
  28      0.000609415329
  29      0.000227054835
  30      0.000078064536
  31      0.004917910949
  32      0.017154981828
  33     -0.018296940130
  34     -0.002707954366
  35      0.003590302767
  36      0.000034481298
  37      0.000004437873
  38      0.000010504986
  39      0.000073619368
  40      0.000036875260
  41     -0.000016657966
  42     -0.000011164435
  43     -0.002577156519
  44      0.032586351828
  45     -0.214749211291
  46     -0.005811739022
  47      0.000346208708
  48     -0.003080722764
  49      0.024227415320
  50      0.006320157839
  51      0.059363178920
  52     -0.000727657726
  53      0.000350981276
  54     -0.000552006428
  55     -0.001488009841
  56      0.000680683592
  57      0.002507454863
  58     -0.032427372924
  59      0.217799582805
  60      0.005366886929
  61      0.000059597180
  62     -0.001272838462
  63     -0.040638098172
  64     -0.004399458139
  65      0.050069759308
  66      0.001030300562
  67      0.000384295344
  68     -0.000803552711
  69      0.001251541464
  70     -0.000534674841
  71      0.009499120996
  72      0.008806951784
  73     -0.000343355000
  74      0.000789593479
  75     -0.000335704324
  76      0.027998290884
  77      0.019653176622
  78      0.001168482970
  79      0.000001765419
  80     -0.000061117991
  81     -0.028540732119
  82     -0.019700994965
  83     -0.001072011141
  84     -0.000042492214
  85     -0.000283142981
  86     -0.009559546750
  87     -0.009193003547
  88      0.000321052074
  89     -0.000730294493
  90     -0.000316470078
 Ene=   0.95553867831089E+00
 Spin= Alpha
 Occup=    0.000000
   1     -0.000014673105
   2      0.000040932369
   3     -0.000225852450
   4     -0.012022844165
   5      0.001513984880
   6     -0.000065613972
   7      0.000008442697
   8      0.000431947180
   9     -0.002533103749
  10      0.000319216463
  11      0.017606106611
  12      0.000007994443
  13     -0.000099218630
  14     -0.000003123591
  15      0.008260264035
  16     -0.000883481522
  17     -0.057629513496
  18     -0.184243354499
  19      0.023399226671
  20      1.228632698722
  21      0.015999006701
  22      0.055084614754
  23     -0.063501579413
  24     -0.007228723651
  25      0.009985069683
  26      0.005816414603
  27      0.023581048250
  28      0.011379317857
  29     -0.003889082909
  30     -0.001148017724
  31      0.133085941605
  32      0.460600388464
  33     -0.466703584418
  34     -0.060864757398
  35      0.076972533045
  36      0.000887931455
  37      0.000058908372
  38      0.000286730276
  39      0.001703552161
  40      0.000889837540
  41     -0.000330216341
  42     -0.000106486333
  43     -0.066524818969
  44      0.850265205231
  45     -5.656888701641
  46     -0.134267279779
  47      0.011948503283
  48     -0.076042534664
  49      0.602451468867
  50      0.101907990793
  51      1.553557422549
  52     -0.019511711651
  53      0.011243277461
  54     -0.015439857443
  55     -0.034301401856
  56      0.020240824353
  57      0.066736157536
  58     -0.853328727012
  59      5.676639930718
  60      0.149556166737
  61     -0.011605708089
  62     -0.034193027566
  63     -1.020744254443
  64     -0.061902836413
  65      1.315934462027
  66      0.026050806797
  67      0.010132632784
  68     -0.018021086722
  69      0.031936683065
  70     -0.014659899598
  71      0.277032080368
  72      0.250746029826
  73     -0.006203778235
  74      0.016805573497
  75     -0.009352112695
  76      0.710713242244
  77      0.497151082123
  78      0.026820668781
  79      0.000451337308
  80     -0.000906035536
  81     -0.712768516949
  82     -0.500703001565
  83     -0.025650558249
  84     -0.000548390431
  85     -0.008716055661
  86     -0.280299419483
  87     -0.253666692036
  88      0.008776125052
  89     -0.017527713881
  90     -0.006859845971
 Ene=   0.95766284687765E+00
 Spin= Alpha
 Occup=    0.000000
   1     -0.000009328479
   2      0.000024211832
   3     -0.000149660310
   4      0.001765224749
   5      0.000056642267
   6      0.000000840674
   7     -0.000000035808
   8     -0.000007249708