[Molden Format]
[Title]
generated by TRESC, real part2 of MOs of job Ni0-C2H4
 
[Atoms] AU
Ni   1  28    2.0327243480    6.6651129323   -0.4637853482
 C   2   6    4.4866582262    4.9116344944    1.3008835560
 C   3   6    4.8771137450    4.8741236186   -1.3947805326
 H   4   1    5.7310700770    6.0706468704    2.4997637439
 H   5   1    3.8369470533    3.1858198160    2.2645095603
 H   6   1    4.5308414173    3.1179949920   -2.4558991994
 H   7   1    6.4130479072    6.0088908466   -2.2212746715
[GTO]
  1 0
 s  6 1.0
   105040.0623800000        0.0035171970
    13968.3586480000        0.0173391066
     2940.9041687000        0.0741624358
      786.1020253800        0.2530654570
      245.2580996100        0.5385985895
       81.4764798070        0.4440458912
 s  3 1.0
      156.2637962600       -0.1055600427
       18.1782549770        0.6426665159
        7.4444231636        0.4714885202
 s  3 1.0
       12.9345647400       -0.2291772139
        2.1221056648        0.7395224896
        0.8740880520        0.4584156000
 s  1 1.0
        0.1104545011        1.0000000000
 s  1 1.0
        0.0401880342        1.0000000000
 p  6 1.0
     2356.4518106000       -0.0000855328
      513.4513882300       -0.0005420978
      158.2013335400       -0.0024494945
       57.5500069520       -0.0071523316
       22.5659922940       -0.0118148309
        9.0452780395       -0.0071547652
 p  5 1.0
     1045.8514156000        0.0092908253
      234.8058471900        0.0670834485
       72.4328268820        0.2652923948
       25.6138643320        0.5353100645
        9.4079524620        0.3595935862
 p  1 1.0
        6.9922696496        1.0000000000
 p  3 1.0
        4.8001460600        0.3535617403
        1.8423116558        0.5937621194
        0.6865826193        0.2491809881
 p  1 1.0
        0.1465880000        1.0000000000
 d  4 1.0
       47.9675640250        0.0288745010
       13.3221273820        0.1553500110
        4.4560102246        0.3821354899
        1.4827299619        0.4857955113
 d  1 1.0
        0.4362198809        1.0000000000
 d  1 1.0
        0.1200000000        1.0000000000
 f  1 1.0
        2.1740000000        1.0000000000
 
  2 0
 s  5 1.0
     1231.7975026000        0.0058423196
      185.5974766200        0.0415113222
       42.0875016200        0.1832849990
       11.6300369400        0.4683526005
        3.5840894779        0.4430601820
 s  1 1.0
        0.4029351893        1.0000000000
 s  1 1.0
        0.1309419451        1.0000000000
 p  3 1.0
        9.4821246358        0.0381720490
        2.0121097169        0.2099973699
        0.5481253660        0.5104097902
 p  1 1.0
        0.1527756940        1.0000000000
 d  1 1.0
        0.8000000000        1.0000000000
 
  3 0
 s  5 1.0
     1231.7975026000        0.0058423196
      185.5974766200        0.0415113222
       42.0875016200        0.1832849990
       11.6300369400        0.4683526005
        3.5840894779        0.4430601820
 s  1 1.0
        0.4029351893        1.0000000000
 s  1 1.0
        0.1309419451        1.0000000000
 p  3 1.0
        9.4821246358        0.0381720490
        2.0121097169        0.2099973699
        0.5481253660        0.5104097902
 p  1 1.0
        0.1527756940        1.0000000000
 d  1 1.0
        0.8000000000        1.0000000000
 
  4 0
 s  3 1.0
       13.0107010000        0.0196821580
        1.9622572000        0.1379652400
        0.4445379600        0.4783193500
 s  1 1.0
        0.1219496200        1.0000000000
 p  1 1.0
        0.8000000000        1.0000000000
 
  5 0
 s  3 1.0
       13.0107010000        0.0196821580
        1.9622572000        0.1379652400
        0.4445379600        0.4783193500
 s  1 1.0
        0.1219496200        1.0000000000
 p  1 1.0
        0.8000000000        1.0000000000
 
  6 0
 s  3 1.0
       13.0107010000        0.0196821580
        1.9622572000        0.1379652400
        0.4445379600        0.4783193500
 s  1 1.0
        0.1219496200        1.0000000000
 p  1 1.0
        0.8000000000        1.0000000000
 
  7 0
 s  3 1.0
       13.0107010000        0.0196821580
        1.9622572000        0.1379652400
        0.4445379600        0.4783193500
 s  1 1.0
        0.1219496200        1.0000000000
 p  1 1.0
        0.8000000000        1.0000000000
 
[5D]
[7F]
[9G]
[MO]
 Ene=   0.68923921265349E+00
 Spin= Alpha
 Occup=    0.000000
   1      0.000021498471
   2     -0.000048228965
   3      0.000374184267
   4     -0.008711371114
   5      0.001936428987
   6     -0.000002525429
   7      0.000001266848
   8     -0.000000543629
   9      0.000042864362
  10     -0.000010333981
  11      0.000016024608
  12      0.000002783828
  13      0.000003325372
  14      0.000002585920
  15     -0.000142032033
  16      0.000027294426
  17     -0.000051215165
  18     -0.003969532932
  19      0.001695069661
  20      0.000565990850
  21      0.000618833869
  22      0.002744251738
  23      0.004460227206
  24     -0.000168189684
  25     -0.000790466670
  26      0.002632395551
  27      0.011217695840
  28      0.017319949440
  29     -0.002410504659
  30     -0.002079959329
  31     -0.002779436819
  32     -0.006780083083
  33     -0.011748420660
  34      0.000733504720
  35      0.002071334578
  36      0.000005321672
  37      0.000044439020
  38      0.000011747513
  39      0.000149783316
  40      0.000064390269
  41     -0.000036936084
  42      0.000011356122
  43      0.001260736657
  44     -0.008805154644
  45      0.020288088638
  46      0.239547856343
  47      0.368720343480
  48      0.026662753814
  49     -0.386945918725
  50     -0.591149547578
  51     -0.043076361331
  52     -0.004483618758
  53     -0.021479390613
  54     -0.029633634275
  55     -0.024026071595
  56     -0.007302722607
  57      0.000772992801
  58     -0.006484195807
  59      0.018140213566
  60     -0.241388999155
  61     -0.369956861860
  62     -0.027778656048
  63      0.385727832417
  64      0.595847626354
  65      0.045031396823
  66     -0.003513194303
  67     -0.013943964598
  68     -0.025675542013
  69      0.030042972747
  70      0.015598469031
  71     -0.220313280417
  72      0.534128702041
  73     -0.029796674980
  74     -0.016878630276
  75     -0.048580681103
  76      0.224876261700
  77     -0.551001448845
  78     -0.007734515306
  79     -0.040324513577
  80      0.044254761301
  81     -0.222600924814
  82      0.539437698229
  83     -0.005631844737
  84      0.041043418557
  85      0.043177503080
  86      0.222005792035
  87     -0.549933157698
  88      0.043232862457
  89      0.016527759899
  90     -0.038678123419
 Ene=   0.71580126227523E+00
 Spin= Alpha
 Occup=    0.000000
   1      0.000059221772
   2     -0.000169964514
   3      0.000886421259
   4     -0.000159681783
   5     -0.000108126351
   6      0.000004903085
   7     -0.000003231572
   8     -0.000002207388
   9     -0.000221577378
  10      0.000135963219
  11      0.000091750392
  12     -0.000009651972
  13      0.000001908980
  14     -0.000165307081
  15      0.000774640474
  16     -0.000438894894
  17     -0.000100405930
  18     -0.004981243788
  19     -0.000978021977
  20      0.004007912565
  21      0.000355107041
  22      0.000267300043
  23     -0.000165254968
  24     -0.000335441664
  25      0.000660890154
  26     -0.000404886504
  27      0.000005473278
  28     -0.000089508942
  29     -0.000244095805
  30     -0.001068198479
  31      0.002572557529
  32      0.001216164098
  33     -0.001147969581
  34     -0.003399799047
  35      0.002984405856
  36     -0.000001906451
  37     -0.000019888374
  38      0.000011650649
  39     -0.000005148077
  40      0.000011373352
  41     -0.000005296759
  42     -0.000049262129
  43     -0.000410990149
  44      0.005237405719
  45     -0.000427329906
  46     -0.010374292872
  47     -0.003318264102
  48      0.010883425035
  49      0.013022780292
  50      0.006782511433
  51     -0.019227967367
  52      0.001023868312
  53      0.000238742762
  54      0.000420954111
  55      0.000569283290
  56     -0.000101108807
  57      0.000038941799
  58     -0.001006986488
  59      0.001090577355
  60     -0.009214746374
  61     -0.004423993955
  62      0.012538615863
  63      0.009535015262
  64      0.009336421206
  65     -0.018794158135
  66     -0.000929070879
  67     -0.000495680109
  68     -0.000092549625
  69      0.000375852212
  70      0.000784966619
  71      0.000140003566
  72     -0.000102400436
  73      0.000300223793
  74     -0.000089430055
  75      0.000390092682
  76     -0.000507017819
  77      0.015520716874
  78      0.000230039394
  79      0.001537306386
  80      0.000093833392
  81      0.004725784046
  82     -0.002055502338
  83     -0.000320386433
  84      0.000063397972
  85      0.000162362144
  86      0.005575171873
  87     -0.018087257451
  88      0.001524205203
  89      0.000988263191
  90      0.000115134131
 Ene=   0.71580126227525E+00
 Spin= Alpha
 Occup=    0.000000
   1      0.003566571532
   2     -0.010186252058
   3      0.053575247952
   4     -0.042683749640
   5     -0.006765510248
   6      0.000260600093
   7     -0.000177789944
   8      0.000041294767
   9     -0.011887673175
  10      0.007889971127
  11     -0.001846448432
  12     -0.001627575537
  13      0.000631992481
  14     -0.000233809127
  15      0.042440192148
  16     -0.026962540540
  17      0.006544733713
  18     -0.200104096117
  19      0.055153516434
  20     -0.028953719537
  21      0.014416909981
  22     -0.006401596100
  23      0.005225193215
  24     -0.015410751069
  25      0.035832404454
  26     -0.020803524443
  27      0.007266625229
  28     -0.007837262533
  29      0.007026817362
  30     -0.050220000234
  31      0.110206339929
  32     -0.048026029830
  33      0.028189059952
  34     -0.116315707333
  35      0.185843130696
  36     -0.000309612274
  37     -0.000788965481
  38      0.000432981210
  39      0.000146612364
  40     -0.000583166456
  41     -0.000441875194
  42     -0.002523881923
  43     -0.009164986399
  44      0.105488970999
  45      0.062890645607
  46     -0.290067179852
  47      0.010907314427
  48     -0.084806217995
  49      0.237977919806
  50      0.120050887990
  51      0.008860151187
  52      0.009983996380
  53      0.019087166625
  54      0.002097757725
  55      0.003987921570
  56      0.012684083858
  57     -0.008955859504
  58      0.103736694923
  59      0.072981667465
  60     -0.303394417714
  61      0.012901475840
  62      0.000606138886
  63      0.231381310942
  64      0.121292100788
  65      0.054300733276
  66     -0.000167429905
  67     -0.019923251019
  68      0.002066948153
  69      0.009544863742
  70      0.012224523352
  71      0.142187276928
  72     -0.233578457412
  73      0.020883337687
  74      0.012278456260
  75      0.010021273615
  76      0.126187257464
  77      0.082603111427
  78     -0.002400130303
  79      0.011654672731
  80      0.000926224121
  81      0.128430483412
  82      0.078053020978
  83     -0.002086728602
  84      0.011186915604
  85     -0.002011867280
  86      0.142115597166
  87     -0.235959711966
  88      0.022941802343
  89      0.012264160621
  90     -0.003967788505
 Ene=   0.71613951447282E+00
 Spin= Alpha
 Occup=    0.000000
   1     -0.000401888273
   2      0.001150699685
   3     -0.006025723652
   4      0.002991388889
   5      0.000784413138
   6     -0.000030284129
   7      0.000020188469
   8     -0.000004404053
   9      0.001360311498
  10     -0.000906501951
  11      0.000168810342
  12      0.000069360654
  13     -0.000106008766
  14      0.000643559578
  15     -0.004671105636
  16      0.003194818493
  17     -0.001395314013
  18      0.017963946565
  19     -0.012351823006
  20     -0.000416586520
  21     -0.001741849017
  22      0.000415383370
  23     -0.000409003365
  24      0.001766519611
  25     -0.004185364067
  26      0.002455723189
  27     -0.000891420155
  28      0.000617935446
  29     -0.002301090039
  30      0.005262201842
  31     -0.013291084747
  32      0.003588164242
  33     -0.002525030114
  34      0.009409623835
  35     -0.023103054512
  36      0.000035194838
  37      0.000091146820
  38     -0.000059981289
  39     -0.000010698754
  40      0.000057798982
  41      0.000056028263
  42      0.000293996189
  43      0.001690170227
  44     -0.018122108101
  45      0.003820099329
  46      0.024786531962
  47     -0.017739788709
  48     -0.002907074404
  49     -0.014759036636
  50      0.010880813971
  51      0.017379680859
  52     -0.001679765377
  53     -0.001024670045
  54      0.000979828122
  55      0.000494662834
  56     -0.000675039511
  57      0.000554893157
  58     -0.007659859496
  59     -0.014324542158
  60      0.025946682890
  61     -0.017037376193
  62     -0.012672048939
  63     -0.013904685250
  64      0.009724414790
  65      0.011741219344
  66      0.000663622147
  67      0.001777764759
  68     -0.001418684237
  69      0.000405377382
  70     -0.001105409904
  71     -0.012991586667
  72     -0.003025607958
  73      0.000214342689
  74      0.000077472525
  75     -0.000483784553
  76     -0.013296499429
  77     -0.000041813630
  78      0.000072168828
  79      0.000150939194
  80     -0.000608039811
  81     -0.018600223348
  82      0.019262345983
  83      0.000464161783
  84      0.001715887832
  85      0.000476922161
  86     -0.018714941468
  87      0.017454593038
  88     -0.001184593724
  89     -0.001063874924
  90      0.000293417922
 Ene=   0.71613951447283E+00
 Spin= Alpha
 Occup=    0.000000
   1      0.012030246856
   2     -0.034422877653
   3      0.180463069565
   4     -0.104186929026
   5     -0.023479010526
   6      0.000899421686
   7     -0.000600787635
   8      0.000140890916
   9     -0.040418735973
  10      0.026978921889
  11     -0.006253294285
  12     -0.004977872196
  13      0.003077991955
  14     -0.000703391612
  15      0.142620808294
  16     -0.094856603034
  17      0.021934678267
  18     -0.540268882812
  19      0.356634903458
  20     -0.081264708766
  21      0.049289237298
  22     -0.021574355102
  23      0.018051030865
  24     -0.051420972511
  25      0.123471486451
  26     -0.071489046576
  27      0.030489120790
  28     -0.023949397664
  29      0.064293808736
  30     -0.156693403839
  31      0.382488760150
  32     -0.149216920031
  33      0.105255876900
  34     -0.284111635572
  35      0.679815323041
  36     -0.001044308153
  37     -0.002655354478
  38      0.001678684972
  39      0.000443168619
  40     -0.002047651353
  41     -0.001666283231
  42     -0.008665261868
  43     -0.033069044441
  44      0.379160891445
  45      0.164847172573
  46     -0.705248203426
  47      0.475138740496
  48     -0.251959494440
  49      0.395796726943
  50     -0.247720203867
  51     -0.029697002896
  52      0.029661457419
  53      0.041298185373
  54     -0.027330511198
  55     -0.017444583686
  56      0.033240238350
  57     -0.032340495474
  58      0.373393766985
  59      0.190373561924
  60     -0.753352412387
  61      0.480235053180
  62      0.037318425640
  63      0.378876208465
  64     -0.241769579052
  65      0.136049054631
  66      0.002970024194
  67     -0.053934543759
  68      0.036274823666
  69     -0.004874556724
  70      0.022906345690
  71      0.469276474955
  72     -0.254972258917
  73      0.016744093093
  74      0.016632430869
  75      0.017162645026
  76      0.465588243207
  77     -0.240299948311
  78     -0.009881173409
  79     -0.021923941673
  80      0.013642574406
  81      0.473351690987
  82     -0.253889658567
  83     -0.005737813587
  84     -0.023602306560
  85     -0.015331466096
  86      0.470928272396
  87     -0.268147913003
  88      0.021421730891
  89      0.016991955552
  90     -0.012254780002
 Ene=   0.72799851537479E+00
 Spin= Alpha
 Occup=    0.000000
   1      0.006172458049
   2     -0.016047600008
   3      0.098875219340
   4     -1.043604882140
   5     -0.018657669801
   6      0.000062491471
   7     -0.000058411378
   8      0.000214165670
   9     -0.009581974484
  10      0.007077013167
  11     -0.009509354073
  12     -0.000944124564
  13      0.000765341897
  14     -0.001053469809
  15      0.033345399949
  16     -0.024759749410
  17      0.033756699905
  18     -0.628772983671
  19      0.443220142108
  20     -0.364485412317
  21      0.005013134913
  22     -0.026601659386
  23      0.017999643830
  24     -0.004333283327
  25      0.015334214006
  26      0.013756955230
  27     -0.001018751972
  28      0.000189861658
  29     -0.006916335928
  30      0.016496880592
  31     -0.078763372981
  32     -0.130581217739
  33      0.109321408844
  34     -0.053950710524
  35      0.155249740870
  36      0.000059970828
  37      0.001278979127
  38     -0.000992229303
  39      0.000332282438
  40     -0.001060420191
  41      0.000006887776
  42      0.000603103436
  43      0.035408601638
  44     -0.490281122592
  45      1.215557956599
  46      0.051569425348
  47      0.021039600127
  48     -0.694956325062
  49     -0.483147881762
  50      0.232710469456
  51      1.098925866062
  52     -0.048755318091
  53     -0.001790249141
  54      0.009608577910
  55     -0.007017554964
  56      0.017313067022
  57      0.032603748430
  58     -0.292164632862
  59      1.491834230922
  60     -0.049983237185
  61      0.091795052949
  62     -0.652203105961
  63     -0.227788418007
  64      0.061439150792
  65      0.942158054163
  66      0.054103514184
  67      0.018209983226
  68     -0.020550195835
  69      0.005195460310
  70     -0.016770235007
  71     -0.087452630604
  72     -0.649361504143
  73      0.023310078332
  74      0.036997716771
  75     -0.008503696364
  76     -0.087611105419
  77     -0.645371590406
  78     -0.023579468870
  79     -0.034676926983
  80     -0.014863502180
  81     -0.315360353547
  82      0.150279703426
  83      0.000822078378
  84      0.037206745451
  85     -0.007098089603
  86     -0.316696004887
  87      0.161686550328
  88     -0.033883218385
  89     -0.015346329996
  90     -0.010737618287
 Ene=   0.72799851537479E+00
 Spin= Alpha
 Occup=    0.000000
   1     -0.008553330345
   2      0.022172784563
   3     -0.137267382619
   4      1.483883663175
   5      0.025435834242
   6     -0.000093266694
   7      0.000073610006
   8     -0.000147255886
   9      0.013696893103
  10     -0.009637655593
  11      0.007342105410
  12      0.001034922081
  13     -0.001047778761
  14      0.001111307052
  15     -0.047304858158
  16      0.033747739384
  17     -0.026391307467
  18      0.912285943859
  19     -0.628820920339
  20      0.314642549336
  21     -0.011131693214
  22      0.019909632319
  23     -0.013293923845
  24      0.007614148920
  25     -0.021442187488
  26     -0.019804406759
  27      0.004847048986
  28     -0.002768200568
  29      0.010237092847
  30     -0.026362164845
  31      0.091813995628
  32      0.083417563765
  33     -0.085531766099
  34      0.083985335247
  35     -0.219873002565
  36     -0.000366495166
  37     -0.001631792766
  38      0.001193204333
  39     -0.000043946745
  40      0.000443871036
  41     -0.000099820512
  42     -0.000827015327
  43     -0.050098173461
  44      0.628861287259
  45     -1.837295913806
  46      0.022018042470
  47     -0.057462261902
  48      0.476323069099
  49      0.488648463254
  50     -0.256542274134
  51     -0.757925720468
  52      0.035882031863
  53      0.017817849036
  54     -0.016875377475
  55      0.002199500396
  56     -0.008178392569
  57     -0.048146475537
  58      0.499996363709
  59     -2.011702907127
  60      0.091755716420
  61     -0.107514013421
  62      0.408695823323
  63      0.307087673363
  64     -0.135697072894
  65     -0.501694030066
  66     -0.039379172477
  67     -0.028542410726
  68      0.024055113727
  69     -0.000961763911
  70      0.010149422422
  71      0.222696622718
  72      0.601546458955
  73     -0.009482809073
  74     -0.031948505609
  75      0.008617212453
  76      0.221659641734
  77      0.607286102554
  78      0.024450466712
  79      0.021375944965
  80      0.013260920102
  81      0.368247652714
  82      0.099734008280
  83      0.009559572508
  84     -0.024589048915
  85      0.004065239612
  86      0.369559691933
  87      0.074272855311
  88      0.028254908908
  89      0.002002598402
  90      0.005290937570
 Ene=   0.72850929971305E+00
 Spin= Alpha
 Occup=    0.000000
   1     -0.000464666560
   2      0.001174079160
   3     -0.007576649427
   4      0.098035526267
   5      0.001204545421
   6     -0.000012066803
   7      0.000001046875
   8      0.000088023265
   9      0.001086590231
  10     -0.000460804647
  11     -0.003324811825
  12      0.000050938141
  13     -0.000052521467
  14     -0.000863457022
  15     -0.003745415093
  16      0.001628197490
  17      0.012485381432
  18      0.073303311663
  19     -0.041355818572
  20     -0.103437351123
  21     -0.003322591309
  22     -0.009501613081
  23      0.006535844669
  24      0.001551533960
  25     -0.001589849986
  26     -0.001277038608
  27      0.002235424742
  28     -0.001568637364
  29      0.000820566619
  30     -0.002991976943
  31     -0.007522465512
  32     -0.056612745206
  33      0.036846212540
  34      0.011113574648
  35     -0.015998694668
  36     -0.000198000405
  37      0.000018045893
  38     -0.000060981720
  39      0.000260952007
  40     -0.000621413137
  41     -0.000057282332
  42     -0.000006772219
  43     -0.003492866517
  44      0.001984273146
  45     -0.198226943895
  46      0.062280219389
  47     -0.021154725843
  48     -0.277834332540
  49     -0.091733068044
  50      0.028376622344
  51      0.439308421825
  52     -0.018035361980
  53      0.010277111987
  54     -0.003067728850
  55     -0.004582539726
  56      0.009261248218
  57     -0.003621457769
  58      0.079426672581
  59     -0.054882639203
  60      0.020841362841
  61      0.006353318776
  62     -0.287159719969
  63      0.009526887352
  64     -0.039525619595
  65      0.475975602932
  66      0.020183284377
  67     -0.003314711030
  68     -0.001600384187
  69      0.003759312726
  70     -0.007666279747
  71      0.072453294906
  72     -0.150978063637
  73      0.013441426833
  74      0.010221920871
  75     -0.001715063303
  76      0.071854410850
  77     -0.146094806105
  78     -0.003816741844
  79     -0.015464975347
  80     -0.003964724470
  81     -0.025235098902
  82      0.193395108504
  83      0.007111029049
  84      0.015331931079
  85     -0.003417616549
  86     -0.025331316884
  87      0.187733232747
  88     -0.010220006154
  89     -0.011852287983
  90     -0.005728412242
 Ene=   0.72850929971306E+00
 Spin= Alpha
 Occup=    0.000000
   1      0.013088861143
   2     -0.033959505239
   3      0.209945305503
   4     -2.247295007127
   5     -0.039696102463
   6      0.000209957900
   7     -0.000125395725
   8     -0.000173019004
   9     -0.023478895982
  10      0.015158468202
  11      0.004333015099
  12     -0.002325541862
  13      0.001642363006
  14      0.000776346958
  15      0.081997061918
  16     -0.053079669425
  17     -0.016016476397
  18     -1.464704065870
  19      0.962077867475
  20      0.036258134399
  21      0.030120881480
  22      0.013892902434
  23     -0.009891074034
  24     -0.018529671957
  25      0.039442763555
  26      0.026809387247
  27     -0.014281737980
  28      0.008825402151
  29     -0.014325195282
  30      0.036908023534
  31     -0.063817989229
  32      0.124294973163
  33     -0.042509482776
  34     -0.167138284735
  35      0.369811116529
  36      0.001216243005
  37      0.001819550571
  38     -0.001150935573
  39     -0.001001070892
  40      0.001923430796
  41      0.000284373162
  42      0.000626575272
  43      0.073190614171
  44     -0.756130634428
  45      3.074795033069
  46     -0.328324361916
  47      0.168532737769
  48      0.560595233190
  49     -0.193538347518
  50      0.208596297567
  51     -0.897197822745
  52      0.032494451485
  53     -0.062322918444
  54      0.033411033307
  55      0.016696757595
  56     -0.026965977743
  57      0.073135508995
  58     -0.932579216494
  59      2.734919406156
  60     -0.244699524741
  61      0.116094589463
  62      0.691990864448
  63     -0.388129439006
  64      0.340292059023
  65     -1.351556061844
  66     -0.035319458937
  67      0.046208695419
  68     -0.022323651111
  69     -0.013459215823
  70      0.021034228202
  71     -0.558343853921
  72     -0.130233103704
  73     -0.042365355459
  74     -0.002071033193
  75     -0.002476406328
  76     -0.555075178877
  77     -0.126384469084
  78     -0.014503082983
  79      0.039630373084
  80      0.000330308947
  81     -0.329509285388
  82     -0.925874250487
  83     -0.041785883109
  84     -0.032639557013
  85      0.008747092632
  86     -0.329777859095
  87     -0.903403599146
  88      0.010522510847
  89      0.048492748819
  90      0.016699765411
 Ene=   0.95553867831086E+00
 Spin= Alpha
 Occup=    0.000000
   1      0.000023147611
   2     -0.000062803037
   3      0.000360370934
   4     -0.002948909913
   5     -0.000394726020
   6     -0.000002635720
   7     -0.000000378617
   8      0.000023450830
   9     -0.000205079626
  10      0.000063387139
  11      0.000939355548
  12     -0.000498929692
  13      0.000001854430
  14     -0.000072246303
  15      0.001348333226
  16     -0.000209425534
  17     -0.002976825273
  18     -0.012503538434
  19      0.002701434893
  20      0.065904768567
  21      0.000878855806
  22      0.002997734515
  23     -0.003348623081
  24     -0.000423770844
  25      0.000713270771
  26      0.000691498217
  27      0.001082493637
  28      0.000551254868
  29     -0.000376278993
  30      0.000006426891
  31      0.007313068130
  32      0.024964227008
  33     -0.024739106833
  34     -0.003692797724
  35      0.005084844469
  36      0.000047753501
  37      0.000002078765
  38      0.000014617119
  39      0.000087383272
  40      0.000044276730
  41     -0.000017419363
  42     -0.000015921936
  43     -0.003646802583
  44      0.046045540649
  45     -0.303332979591
  46     -0.007808244813
  47      0.001338487230
  48     -0.004313288516
  49      0.031349447960
  50      0.004561276309
  51      0.083496814187
  52     -0.001007298776
  53      0.000532450232
  54     -0.000789503205
  55     -0.001746200065
  56      0.001133026340
  57      0.003543010848
  58     -0.045864083159
  59      0.308163759384
  60      0.007267155622
  61     -0.000254389065
  62     -0.001852798033
  63     -0.054727699874
  64     -0.001860313283
  65      0.071199395670
  66      0.001491854351
  67      0.000621051916
  68     -0.000968879236
  69      0.001686667118
  70     -0.000793525244
  71      0.015307816110
  72      0.013838682386
  73     -0.000313726921
  74      0.000850826134
  75     -0.000518911198
  76      0.037671220896
  77      0.026340348588
  78      0.001328980622
  79      0.000056332232
  80     -0.000043696773
  81     -0.037936085813
  82     -0.026816692274
  83     -0.001375613113
  84      0.000004983879
  85     -0.000500023711
  86     -0.015951078076
  87     -0.014043561540
  88      0.000445822372
  89     -0.000890432283
  90     -0.000349395762
 Ene=   0.95553867831089E+00
 Spin= Alpha
 Occup=    0.000000
   1     -0.000017462154
   2      0.000049589015
   3     -0.000265833914
   4     -0.018993370671
   5      0.002241049090
   6     -0.000099379365
   7      0.000012789894
   8      0.000655467537
   9     -0.003855259450
  10      0.000492871413
  11      0.026715029851
  12      0.000047195165
  13      0.000009618906
  14     -0.000001940692
  15      0.012525287449
  16     -0.001584853307
  17     -0.087449244849
  18     -0.280152713834
  19      0.035951495431
  20      1.864370647691
  21      0.024500888431
  22      0.084618495026
  23     -0.094726325253
  24     -0.011201486728
  25      0.014943876516
  26      0.008604840974
  27      0.034080354888
  28      0.015002673537
  29     -0.005463391153
  30     -0.001364166466
  31      0.203288579878
  32      0.705226594053
  33     -0.698589409611
  34     -0.093626297654
  35      0.115655720239
  36      0.001341831344
  37      0.000056753201
  38      0.000415675493
  39      0.002437039308
  40      0.001287784600
  41     -0.000473324112
  42     -0.000153987148
  43     -0.100956357676
  44      1.290141077363
  45     -8.583254034861
  46     -0.200611867357
  47      0.023333715364
  48     -0.115076749626
  49      0.889128159854
  50      0.116503500977
  51      2.354291004009
  52     -0.029497015845
  53      0.017670362202
  54     -0.022679458505
  55     -0.050267639739
  56      0.031409989209
  57      0.101271565672
  58     -1.294938269038
  59      8.614456333949
  60      0.223569087324
  61     -0.022783786206
  62     -0.052373788359
  63     -1.524237316975
  64     -0.055460826358
  65      1.999973150582
  66      0.039591157679
  67      0.015491254127
  68     -0.026952695560
  69      0.046501950003
  70     -0.023133000182
  71      0.439296946609
  72      0.391159502898
  73     -0.008753746246
  74      0.023726226418
  75     -0.013933789893
  76      1.059318561484
  77      0.743520634604
  78      0.038801680048
  79      0.000636827768
  80     -0.001801738982
  81     -1.062716547939
  82     -0.748919522932
  83     -0.036983432920
  84     -0.000781217829
  85     -0.013044903153
  86     -0.444318613246
  87     -0.395724869763
  88      0.012569505012
  89     -0.024782657739
  90     -0.010429700821
 Ene=   0.95766284687765E+00
 Spin= Alpha
 Occup=    0.000000
   1     -0.000010084466
   2      0.000026453652
   3     -0.000160683592
   4      0.001752122720
   5      0.000114739518
   6      0.000001027560
   7      0.000000154980
   8     -0.000008065381