[Molden Format]
[Title]
generated by TRESC, imaginary part1 of MOs of job Ni0-C2H4
 
[Atoms] AU
Ni   1  28    2.0327243480    6.6651129323   -0.4637853482
 C   2   6    4.4866582262    4.9116344944    1.3008835560
 C   3   6    4.8771137450    4.8741236186   -1.3947805326
 H   4   1    5.7310700770    6.0706468704    2.4997637439
 H   5   1    3.8369470533    3.1858198160    2.2645095603
 H   6   1    4.5308414173    3.1179949920   -2.4558991994
 H   7   1    6.4130479072    6.0088908466   -2.2212746715
[GTO]
  1 0
 s  6 1.0
   105040.0623800000        0.0035171970
    13968.3586480000        0.0173391066
     2940.9041687000        0.0741624358
      786.1020253800        0.2530654570
      245.2580996100        0.5385985895
       81.4764798070        0.4440458912
 s  3 1.0
      156.2637962600       -0.1055600427
       18.1782549770        0.6426665159
        7.4444231636        0.4714885202
 s  3 1.0
       12.9345647400       -0.2291772139
        2.1221056648        0.7395224896
        0.8740880520        0.4584156000
 s  1 1.0
        0.1104545011        1.0000000000
 s  1 1.0
        0.0401880342        1.0000000000
 p  6 1.0
     2356.4518106000       -0.0000855328
      513.4513882300       -0.0005420978
      158.2013335400       -0.0024494945
       57.5500069520       -0.0071523316
       22.5659922940       -0.0118148309
        9.0452780395       -0.0071547652
 p  5 1.0
     1045.8514156000        0.0092908253
      234.8058471900        0.0670834485
       72.4328268820        0.2652923948
       25.6138643320        0.5353100645
        9.4079524620        0.3595935862
 p  1 1.0
        6.9922696496        1.0000000000
 p  3 1.0
        4.8001460600        0.3535617403
        1.8423116558        0.5937621194
        0.6865826193        0.2491809881
 p  1 1.0
        0.1465880000        1.0000000000
 d  4 1.0
       47.9675640250        0.0288745010
       13.3221273820        0.1553500110
        4.4560102246        0.3821354899
        1.4827299619        0.4857955113
 d  1 1.0
        0.4362198809        1.0000000000
 d  1 1.0
        0.1200000000        1.0000000000
 f  1 1.0
        2.1740000000        1.0000000000
 
  2 0
 s  5 1.0
     1231.7975026000        0.0058423196
      185.5974766200        0.0415113222
       42.0875016200        0.1832849990
       11.6300369400        0.4683526005
        3.5840894779        0.4430601820
 s  1 1.0
        0.4029351893        1.0000000000
 s  1 1.0
        0.1309419451        1.0000000000
 p  3 1.0
        9.4821246358        0.0381720490
        2.0121097169        0.2099973699
        0.5481253660        0.5104097902
 p  1 1.0
        0.1527756940        1.0000000000
 d  1 1.0
        0.8000000000        1.0000000000
 
  3 0
 s  5 1.0
     1231.7975026000        0.0058423196
      185.5974766200        0.0415113222
       42.0875016200        0.1832849990
       11.6300369400        0.4683526005
        3.5840894779        0.4430601820
 s  1 1.0
        0.4029351893        1.0000000000
 s  1 1.0
        0.1309419451        1.0000000000
 p  3 1.0
        9.4821246358        0.0381720490
        2.0121097169        0.2099973699
        0.5481253660        0.5104097902
 p  1 1.0
        0.1527756940        1.0000000000
 d  1 1.0
        0.8000000000        1.0000000000
 
  4 0
 s  3 1.0
       13.0107010000        0.0196821580
        1.9622572000        0.1379652400
        0.4445379600        0.4783193500
 s  1 1.0
        0.1219496200        1.0000000000
 p  1 1.0
        0.8000000000        1.0000000000
 
  5 0
 s  3 1.0
       13.0107010000        0.0196821580
        1.9622572000        0.1379652400
        0.4445379600        0.4783193500
 s  1 1.0
        0.1219496200        1.0000000000
 p  1 1.0
        0.8000000000        1.0000000000
 
  6 0
 s  3 1.0
       13.0107010000        0.0196821580
        1.9622572000        0.1379652400
        0.4445379600        0.4783193500
 s  1 1.0
        0.1219496200        1.0000000000
 p  1 1.0
        0.8000000000        1.0000000000
 
  7 0
 s  3 1.0
       13.0107010000        0.0196821580
        1.9622572000        0.1379652400
        0.4445379600        0.4783193500
 s  1 1.0
        0.1219496200        1.0000000000
 p  1 1.0
        0.8000000000        1.0000000000
 
[5D]
[7F]
[9G]
[MO]
 Ene=  -0.29968214869290E+03
 Spin= Alpha
 Occup=    1.000000
   1      0.259686222485
   2      0.006909659865
   3     -0.001852948165
   4      0.002614029484
   5     -0.000346830535
   6      0.000000818019
   7     -0.000000557421
   8      0.000000126995
   9     -0.000022424722
  10      0.000015415945
  11     -0.000003546057
  12      0.000083109462
  13     -0.000055911791
  14      0.000013032479
  15     -0.000111636614
  16      0.000074821151
  17     -0.000017466802
  18      0.001296721357
  19     -0.000867346825
  20      0.000200622154
  21      0.000018096729
  22     -0.000007941667
  23      0.000006532270
  24     -0.000018098584
  25      0.000043407834
  26     -0.000069053899
  27      0.000029914004
  28     -0.000024379559
  29      0.000067725645
  30     -0.000162414746
  31     -0.000100632202
  32      0.000056897424
  33     -0.000058710307
  34      0.000168609936
  35     -0.000402576754
  36     -0.000000244934
  37     -0.000000721805
  38      0.000000289035
  39     -0.000000028514
  40     -0.000001969483
  41     -0.000001942735
  42     -0.000010383781
  43      0.000009323014
  44      0.000126456900
  45     -0.001483217502
  46      0.000113128256
  47     -0.000077660519
  48      0.000040450132
  49      0.000491372843
  50     -0.000339650926
  51      0.000235710755
  52      0.000030066555
  53     -0.000070341776
  54      0.000046527612
  55     -0.000017588164
  56      0.000055026212
  57      0.000009478444
  58      0.000124812014
  59     -0.001489673087
  60      0.000121262029
  61     -0.000078576820
  62     -0.000004099330
  63      0.000537725351
  64     -0.000349622323
  65     -0.000072778535
  66      0.000060325082
  67      0.000037484846
  68     -0.000027096710
  69     -0.000032619895
  70      0.000067621572
  71      0.000088817680
  72      0.000179042947
  73     -0.000020116404
  74      0.000018612687
  75     -0.000020322393
  76      0.000089723421
  77      0.000180267884
  78     -0.000023572497
  79      0.000013357058
  80     -0.000020809113
  81      0.000088927969
  82      0.000179029363
  83     -0.000028438923
  84      0.000014161284
  85      0.000012602556
  86      0.000090330797
  87      0.000181096301
  88     -0.000024750915
  89      0.000018815541
  90      0.000012989929
 Ene=  -0.29968214869290E+03
 Spin= Alpha
 Occup=    0.000000
   1      0.000000078255
   2      0.000000002082
   3     -0.000000000559
   4      0.000000000665
   5     -0.000000000090
   6     -0.000000000002
   7      0.000000001069
   8      0.000000004594
   9      0.000000000028
  10     -0.000000043975
  11     -0.000000188809
  12     -0.000000000107
  13      0.000000032766
  14      0.000000141417
  15      0.000000000138
  16     -0.000000008723
  17     -0.000000038606
  18     -0.000000001431
  19      0.000000002075
  20      0.000000021209
  21     -0.000000000493
  22     -0.000000001906
  23      0.000000000646
  24     -0.000000000231
  25     -0.000000000318
  26      0.000000000355
  27      0.000000001405
  28     -0.000000000678
  29     -0.000000000035
  30      0.000000000130
  31      0.000000002196
  32      0.000000008058
  33     -0.000000005466
  34     -0.000000000448
  35      0.000000001078
  36     -0.000000000081
  37      0.000000000047
  38     -0.000000000030
  39      0.000000000060
  40     -0.000000000115
  41      0.000000000009
  42      0.000000000015
  43     -0.000000000148
  44      0.000000003423
  45     -0.000000033921
  46     -0.000000000192
  47      0.000000000361
  48      0.000000000374
  49      0.000000007739
  50     -0.000000006914
  51      0.000000007028
  52      0.000000000373
  53      0.000000000014
  54     -0.000000000080
  55      0.000000000098
  56      0.000000000159
  57      0.000000000155
  58     -0.000000003358
  59      0.000000033183
  60      0.000000000355
  61     -0.000000000089
  62      0.000000000443
  63     -0.000000009953
  64      0.000000005567
  65      0.000000004143
  66     -0.000000000273
  67      0.000000000238
  68     -0.000000000126
  69      0.000000000105
  70      0.000000000026
  71      0.000000002483
  72      0.000000001242
  73     -0.000000000192
  74      0.000000000456
  75     -0.000000000034
  76      0.000000001717
  77      0.000000000986
  78     -0.000000000533
  79      0.000000000183
  80      0.000000000008
  81     -0.000000002231
  82     -0.000000000905
  83      0.000000000433
  84      0.000000000005
  85      0.000000000160
  86     -0.000000001879
  87     -0.000000001145
  88      0.000000000358
  89     -0.000000000424
  90      0.000000000074
 Ene=  -0.36070633374912E+02
 Spin= Alpha
 Occup=    0.009987
   1      0.017804821999
   2     -0.059192781824
   3     -0.001481463337
   4      0.001394296862
   5     -0.000196560133
   6     -0.000000013042
   7      0.000000039368
   8      0.000000056023
   9      0.000006183100
  10     -0.000005424506
  11     -0.000001508558
  12      0.000034887382
  13     -0.000023446566
  14      0.000005317166
  15     -0.000053143016
  16      0.000035575305
  17     -0.000008345641
  18      0.000672447269
  19     -0.000449777080
  20      0.000104081786
  21      0.000004627347
  22     -0.000003668666
  23      0.000004666149
  24     -0.000013821716
  25      0.000032927696
  26     -0.000033301552
  27      0.000014946330
  28     -0.000012700604
  29      0.000035543285
  30     -0.000085177711
  31     -0.000052944768
  32      0.000029862148
  33     -0.000030722901
  34      0.000088172065
  35     -0.000210520714
  36     -0.000000073540
  37     -0.000000228318
  38      0.000000071467
  39     -0.000000032385
  40     -0.000000841266
  41     -0.000000836599
  42     -0.000004508851
  43      0.000004608083
  44      0.000063789847
  45     -0.000774474701
  46      0.000058317670
  47     -0.000040017238
  48      0.000020640948
  49      0.000255045416
  50     -0.000176126407
  51      0.000119749803
  52      0.000015011640
  53     -0.000034424593
  54      0.000022653986
  55     -0.000008258216
  56      0.000026107992
  57      0.000004683668
  58      0.000062913525
  59     -0.000777598040
  60      0.000062413907
  61     -0.000040467925
  62     -0.000001925981
  63      0.000278331943
  64     -0.000181109755
  65     -0.000035208562
  66      0.000029783297
  67      0.000018302204
  68     -0.000013348511
  69     -0.000015590782
  70      0.000032229628
  71      0.000046528231
  72      0.000096042578
  73     -0.000010617217
  74      0.000009081814
  75     -0.000010074845
  76      0.000046973588
  77      0.000096657306
  78     -0.000011810750
  79      0.000007265810
  80     -0.000010250966
  81      0.000046582230
  82      0.000096058531
  83     -0.000014205275
  84      0.000007672195
  85      0.000006129930
  86      0.000047281511
  87      0.000097071177
  88     -0.000012878208
  89      0.000009161091
  90      0.000006251985
 Ene=  -0.36070633374912E+02
 Spin= Alpha
 Occup=    0.990013
   1      0.177268382829
   2     -0.589335221183
   3     -0.014749747880
   4      0.013881912596
   5     -0.001956988535
   6     -0.000000129472
   7      0.000000212675
   8     -0.000000102278
   9      0.000061544598
  10     -0.000046494111
  11      0.000012660927
  12      0.000347347002
  13     -0.000233177086
  14      0.000054710248
  15     -0.000529104512
  16      0.000354323953
  17     -0.000082724092
  18      0.006695034674
  19     -0.004478096673
  20      0.001036196905
  21      0.000046070389
  22     -0.000036543787
  23      0.000046337066
  24     -0.000137612393
  25      0.000327850503
  26     -0.000331551718
  27      0.000148835364
  28     -0.000126415642
  29      0.000353879914
  30     -0.000848048499
  31     -0.000527138668
  32      0.000297281836
  33     -0.000305878488
  34      0.000877858189
  35     -0.002095995542
  36     -0.000000733097
  37     -0.000002269675
  38      0.000000710554
  39     -0.000000309262
  40     -0.000008381067
  41     -0.000008325916
  42     -0.000044890991
  43      0.000045881965
  44      0.000635100785
  45     -0.007710799661
  46      0.000580630478
  47     -0.000398403660
  48      0.000205550897
  49      0.002539255550
  50     -0.001753566484
  51      0.001192253066
  52      0.000149449331
  53     -0.000342737617
  54      0.000225553719
  55     -0.000082218223
  56      0.000259942974
  57      0.000046628785
  58      0.000626382648
  59     -0.007741968636
  60      0.000621398640
  61     -0.000402904586
  62     -0.000019132324
  63      0.002771163129
  64     -0.001803154332
  65     -0.000350538082
  66      0.000296536978
  67      0.000182214699
  68     -0.000132899540
  69     -0.000155223222
  70      0.000320878524
  71      0.000463231636
  72      0.000956240678
  73     -0.000105702374
  74      0.000090428780
  75     -0.000100305459
  76      0.000467666329
  77      0.000962323271
  78     -0.000117588186
  79      0.000072338703
  80     -0.000102057169
  81      0.000463806415
  82      0.000956385228
  83     -0.000141430727
  84      0.000076390592
  85      0.000061036152
  86      0.000470747948
  87      0.000966446746
  88     -0.000128221226
  89      0.000091205559
  90      0.000062244798
 Ene=  -0.31594416332502E+02
 Spin= Alpha
 Occup=    0.364050
   1     -0.000001787896
   2      0.000008486114
   3      0.000035312345
   4     -0.000336846881
   5     -0.000098372455
   6      0.000054849639
   7      0.003749628964
   8      0.007017056273
   9     -0.002304799599
  10     -0.157006542668
  11     -0.293801661077
  12      0.000028462908
  13      0.000526125530
  14      0.000896898248
  15     -0.000005235267
  16     -0.002915413345
  17     -0.005493356613
  18     -0.000432326606
  19      0.000718748025
  20      0.002077707309
  21     -0.000003739145
  22     -0.000010522248
  23      0.000008065863
  24      0.000012189645
  25     -0.000001506029
  26      0.000018116710
  27      0.000037433421
  28     -0.000028104969
  29     -0.000030603440
  30      0.000012307505
  31      0.000270690801
  32      0.000812825126
  33     -0.000525981544
  34     -0.000023539020
  35      0.000278237208
  36     -0.000019099596
  37      0.000004090277
  38     -0.000005229873
  39      0.000003790508
  40     -0.000010403330
  41     -0.000006935374
  42      0.000003432396
  43     -0.000020275990
  44      0.000325139636
  45     -0.002831483174
  46     -0.000057328294
  47      0.000061522370
  48     -0.000012173450
  49      0.000618934157
  50     -0.000621532169
  51      0.000536067843
  52      0.000028496940
  53      0.000021435349
  54     -0.000021604455
  55      0.000017068731
  56      0.000001265377
  57      0.000015979262
  58     -0.000304196207
  59      0.003366614660
  60      0.000032848472
  61      0.000000342141
  62      0.000009877808
  63     -0.001110764208
  64      0.000529308548
  65      0.000347840571
  66     -0.000026016159
  67      0.000031954059
  68     -0.000007193634
  69      0.000006400349
  70      0.000021936109
  71      0.000241501173
  72      0.000080701860
  73     -0.000007254011
  74      0.000028437052
  75      0.000005344963
  76      0.000122413716
  77      0.000110491807
  78     -0.000050258636
  79      0.000024716780
  80     -0.000000034792
  81     -0.000283364980
  82     -0.000066998702
  83      0.000030687899
  84      0.000002245315
  85      0.000008216892
  86     -0.000165950980
  87     -0.000097088669
  88      0.000044328232
  89     -0.000037077505
  90      0.000011721454
 Ene=  -0.31594416332502E+02
 Spin= Alpha
 Occup=    0.635950
   1      0.000013390643
   2     -0.000059726734
   3     -0.000210492888
   4      0.001934969623
   5      0.000593920155
   6     -0.000526133681
   7     -0.012385297552
   8      0.002076877204
   9      0.022053890204
  10      0.518598652466
  11     -0.086954807024
  12     -0.000112216282
  13     -0.001732146976
  14      0.000261104594
  15      0.000257567423
  16      0.009671227258
  17     -0.001649658379
  18      0.001468983868
  19     -0.002773770107
  20      0.000851974343
  21      0.000002789938
  22     -0.000009671060
  23      0.000003379974
  24     -0.000034931205
  25      0.000012126370
  26     -0.000035504652
  27      0.000036189338
  28     -0.000017587571
  29      0.000088916018
  30     -0.000067072132
  31     -0.000193801845
  32      0.000290707030
  33     -0.000294538605
  34     -0.000133949108
  35     -0.000880855138
  36      0.000001397506
  37      0.000019399107
  38      0.000000981233
  39      0.000000109318
  40     -0.000003473670
  41      0.000018038957
  42     -0.000004045278
  43      0.000008372413
  44      0.000021303434
  45     -0.002392065388
  46      0.000089359635
  47     -0.000128027470
  48      0.000040712189
  49      0.000995300961
  50     -0.000201136117
  51      0.000528450952
  52      0.000038070350
  53     -0.000023920129
  54      0.000017617906
  55     -0.000039233765
  56     -0.000036376194
  57      0.000018225599
  58     -0.000152347989
  59     -0.000703322823
  60      0.000121604039
  61     -0.000145126504
  62     -0.000004735229
  63      0.000590450437
  64      0.000109453696
  65     -0.000032620705
  66      0.000031304077
  67      0.000007284090
  68     -0.000034428734
  69     -0.000044130437
  70     -0.000024015298
  71      0.000008045845
  72      0.000019382183
  73     -0.000068049215
  74      0.000025192932
  75     -0.000016439952
  76      0.000351235928
  77     -0.000067111556
  78      0.000011886190
  79     -0.000032088372
  80     -0.000006221016
  81      0.000240950584
  82     -0.000112905474
  83      0.000030967894
  84     -0.000037217081
  85      0.000017487123
  86     -0.000102108836
  87     -0.000022461085
  88     -0.000057049931
  89      0.000007191479
  90      0.000001644576
 Ene=  -0.31263789781821E+02
 Spin= Alpha
 Occup=    0.486517
   1     -0.000000506637
   2      0.000001679332
   3     -0.000000236150
   4      0.000014121149
   5     -0.000000344101
   6      0.001095782074
   7     -0.000384075653
   8     -0.008569671432
   9     -0.045893213003
  10      0.016086527310
  11      0.358916635195
  12     -0.000439097676
  13      0.000143038504
  14      0.003391925256
  15     -0.000773222167
  16      0.000270808447
  17      0.006041721397
  18      0.000309509380
  19     -0.000068019454
  20     -0.002191951588
  21      0.000003169027
  22      0.000012222021
  23     -0.000007575447
  24     -0.000002474275
  25      0.000000986850
  26     -0.000011331649
  27     -0.000041095965
  28      0.000027867196
  29      0.000007147187
  30     -0.000004123862
  31     -0.000235108035
  32     -0.000844125845
  33      0.000574296087
  34      0.000108421795
  35     -0.000103572196
  36      0.000021195719
  37     -0.000009239415
  38      0.000003923371
  39     -0.000004098476
  40      0.000011686334
  41      0.000001231267
  42     -0.000002349085
  43      0.000018992716
  44     -0.000323777401
  45      0.003181126858
  46      0.000048847609
  47     -0.000034230365
  48      0.000006789805
  49     -0.000810154481
  50      0.000593675740
  51     -0.000615289522
  52     -0.000033048915
  53     -0.000019915577
  54      0.000018899447
  55     -0.000003966137
  56      0.000010705760
  57     -0.000019124400
  58      0.000324448312
  59     -0.003199379306
  60     -0.000050336065
  61      0.000032228360
  62     -0.000008243331
  63      0.000964092189
  64     -0.000593262151
  65     -0.000337501571
  66      0.000018371061
  67     -0.000031698095
  68      0.000015874995
  69      0.000009315072
  70     -0.000018053173
  71     -0.000213948540
  72     -0.000088039959
  73      0.000026096372
  74     -0.000033516655
  75     -0.000001934851
  76     -0.000205617307
  77     -0.000090144341
  78      0.000042608894
  79     -0.000012553886
  80      0.000000106770
  81      0.000214271926
  82      0.000089716981
  83     -0.000039510153
  84      0.000010501141
  85     -0.000012204574
  86      0.000207327775
  87      0.000090763550
  88     -0.000026197222
  89      0.000033183483
  90     -0.000010818943
 Ene=  -0.31263789781821E+02
 Spin= Alpha
 Occup=    0.513483
   1      0.000000193032
   2     -0.000000798019
   3     -0.000002070703
   4      0.000018621785
   5      0.000006175601
   6      0.000382169792
   7      0.000528953058
   8      0.000446050081
   9     -0.016007620371
  10     -0.022156054372
  11     -0.018681698260
  12     -0.000158303592
  13     -0.000219991625
  14     -0.000175937410
  15     -0.000261738535
  16     -0.000359562269
  17     -0.000314265348
  18      0.000052397292
  19      0.000052207389
  20      0.000108989769
  21     -0.000000098661
  22     -0.000000433458
  23      0.000000431576
  24      0.000000911014
  25      0.000000535160
  26      0.000000109283
  27      0.000001694909
  28     -0.000001610360
  29     -0.000002579985
  30     -0.000001748950
  31      0.000008527122
  32      0.000042752668
  33     -0.000025644817
  34      0.000019919055
  35      0.000006501680
  36     -0.000000982024
  37      0.000000392934
  38     -0.000000506658
  39     -0.000000057629
  40     -0.000000418331
  41     -0.000001349129
  42      0.000000350209
  43     -0.000000743126
  44      0.000014116594
  45     -0.000160920019
  46      0.000000643498
  47      0.000003118125
  48      0.000000310434
  49      0.000030448788
  50     -0.000049206856
  51      0.000030048967
  52      0.000001735791
  53      0.000000607113
  54     -0.000001179762
  55      0.000002759548
  56      0.000000407118
  57      0.000001002792
  58     -0.000015615180
  59      0.000131071327
  60      0.000005251615
  61      0.000000076259
  62      0.000000563880
  63     -0.000049628069
  64      0.000004885075
  65      0.000012410595
  66     -0.000000360087
  67      0.000002258555
  68     -0.000000059103
  69      0.000001941029
  70      0.000001604533
  71      0.000020150180
  72      0.000001099815
  73      0.000001475280
  74      0.000000939332
  75      0.000000351565
  76      0.000001563221
  77      0.000006085265
  78     -0.000003669444
  79      0.000002984029
  80     -0.000000358477
  81     -0.000017659723
  82     -0.000002235464
  83      0.000000048615
  84      0.000001924084
  85      0.000000310756
  86      0.000000775589
  87     -0.000007432701
  88      0.000003904960
  89     -0.000002132009
  90      0.000000976864
 Ene=  -0.31254843562672E+02
 Spin= Alpha
 Occup=    0.264275
   1      0.000001835392
   2     -0.000008033165
   3     -0.000025676908
   4      0.000245228800
   5      0.000075500211
   6      0.004893403194
   7      0.004436830642
   8     -0.004461208621
   9     -0.204958761808
  10     -0.185842640886
  11      0.186845455025
  12     -0.001958018314
  13     -0.001745055453
  14      0.001836836593
  15     -0.003418980010
  16     -0.003065300511
  17      0.003137702453
  18      0.000874219789
  19      0.000375363430
  20     -0.001179745443
  21      0.000002219861
  22      0.000008879771
  23     -0.000002395814
  24      0.000011791105
  25      0.000009065182
  26     -0.000011471930
  27     -0.000025499762
  28      0.000012273679
  29     -0.000018844349
  30     -0.000024164375
  31     -0.000164798728
  32     -0.000447458720
  33      0.000336059931
  34      0.000305828997
  35     -0.000065126507
  36      0.000011974976
  37     -0.000007406803
  38     -0.000004648539
  39     -0.000003871873
  40      0.000008590650
  41     -0.000011085991
  42      0.000000885067
  43      0.000012591372
  44     -0.000196483541
  45      0.001656234058
  46      0.000059454863
  47     -0.000007713642
  48      0.000011051317
  49     -0.000515723416
  50      0.000126891443
  51     -0.000329190364
  52     -0.000016243013
  53     -0.000015253411
  54      0.000008290213
  55      0.000021898467
  56      0.000014014154
  57     -0.000009560241
  58      0.000178981788
  59     -0.002045218043
  60      0.000002377849
  61      0.000031075912
  62     -0.000003041530
  63      0.000526136554
  64     -0.000564088648
  65     -0.000228499918
  66      0.000016133005
  67     -0.000010582865
  68      0.000015138620
  69      0.000027597019
  70     -0.000003916635
  71     -0.000023452602
  72     -0.000080389041
  73      0.000039942038
  74     -0.000024999489
  75      0.000001112093
  76     -0.000189024992
  77     -0.000035028061
  78      0.000008259210
  79      0.000015585228
  80     -0.000003655587
  81      0.000054512613
  82      0.000068380486
  83     -0.000039828578
  84      0.000028938168
  85     -0.000009135816
  86      0.000220099599
  87      0.000020051470
  88      0.000009906545
  89      0.000013484761
  90     -0.000001628186
 Ene=  -0.31254843562672E+02
 Spin= Alpha
 Occup=    0.735725
   1     -0.000008514635
   2      0.000035873325
   3      0.000100174705
   4     -0.000927700272
   5     -0.000295942622
   6     -0.011344598259
   7     -0.010488887987
   8     -0.002877528784
   9      0.475166720689
  10      0.439343541222
  11      0.120521293735
  12      0.004530296053
  13      0.004116096772
  14      0.001162903371
  15      0.007936446575
  16      0.007230459178
  17      0.002020202326
  18     -0.002068853376
  19     -0.000718133895
  20     -0.000643595206
  21     -0.000000674611
  22     -0.000002046842
  23     -0.000005273061
  24     -0.000030650884
  25     -0.000024319040
  26      0.000016850179
  27     -0.000005396486
  28      0.000015679373
  29      0.000050175180
  30      0.000067446097
  31      0.000077803846
  32     -0.000260626229
  33      0.000106021154
  34     -0.000626820830
  35      0.000133094787
  36      0.000003220483
  37      0.000000649676
  38      0.000019095995
  39      0.000003594648
  40     -0.000003002703
  41      0.000028616923
  42     -0.000006026808
  43     -0.000003044605
  44     -0.000018327625
  45      0.001253790515
  46     -0.000090965096
  47     -0.000018659969
  48     -0.000023858341
  49     -0.000121507961
  50      0.000692813547
  51     -0.000227629598
  52     -0.000017360602
  53      0.000010104923
  54      0.000007683215
  55     -0.000061095067
  56     -0.000013339304
  57     -0.000009099459
  58      0.000087470642
  59      0.000231402360
  60     -0.000109423536
  61     -0.000008367177
  62     -0.000005380322
  63      0.000119363622
  64      0.000509237133
  65      0.000053280235
  66     -0.000017102424
  67     -0.000025788752
  68     -0.000009287731
  69     -0.000053219318
  70     -0.000015722307
  71     -0.000300969495
  72      0.000066084816
  73     -0.000053869731
  74      0.000007286763
  75     -0.000003772738
  76      0.000112078591
  77     -0.000046581070
  78      0.000047840552
  79     -0.000058842629
  80      0.000010834347
  81      0.000179528791
  82     -0.000015884975
  83      0.000036369192
  84     -0.000055236252
  85      0.000001556214
  86     -0.000231108143
  87      0.000102752716
  88     -0.000062614924
  89      0.000018525954
  90     -0.000014260721
 Ene=  -0.10234169935348E+02
 Spin= Alpha
 Occup=    0.995129
   1      0.000004919971
   2     -0.000009923995
   3      0.000092191613
   4      0.001366538712
   5     -0.000174545162
   6      0.000000187810
   7     -0.000000149847
   8      0.000000364098
   9      0.000003028023
  10     -0.000002112914
  11      0.000000245732
  12     -0.000023071533
  13      0.000014756508
  14      0.000005625997
  15      0.000051021582
  16     -0.000032387933
  17     -0.000009478573
  18      0.000299051637
  19     -0.000226676006
  20      0.000367306267
  21     -0.000018354384
  22      0.000020457936
  23     -0.000016124805
  24      0.000025723134
  25     -0.000063304526
  26      0.000076035805
  27     -0.000071416176
  28      0.000057547052
  29     -0.000099343227
  30      0.000245276524
  31      0.000132111465
  32      0.000097256746
  33     -0.000071249979
  34     -0.000062209482
  35      0.000121673778
  36      0.000005601052
  37      0.000003068519
  38     -0.000001611628
  39     -0.000002827509
  40      0.000011216747
  41      0.000005533471
  42      0.000026455400
  43      0.152624905040
  44      0.007360674549
  45     -0.006053910408
  46     -0.000046645418
  47     -0.000000989146
  48      0.000345056950
  49      0.000369366206
  50     -0.000275873204
  51      0.000474102522
  52     -0.000019865452
  53      0.000121923224
  54     -0.000058615903
  55     -0.000100251909
  56      0.000208579958
  57      0.088499407414
  58      0.003989242211
  59     -0.001414845166
  60      0.000025252807
  61      0.000021680011
  62     -0.000494936512
  63      0.000134576806
  64     -0.000129559669
  65      0.000452150700
  66     -0.000207080991
  67     -0.000033562700
  68      0.000059103207
  69     -0.000033542080
  70      0.000084272576
  71     -0.000847455677
  72      0.001206018073
  73      0.000222711464
  74      0.000279076255
  75      0.000138642151
  76     -0.000846746103
  77      0.001209474769
  78     -0.000176466764
  79     -0.000329001293
  80      0.000089361802
  81     -0.000526948606
  82      0.000641746837
  83     -0.000091043812
  84     -0.000169171924
  85     -0.000049089824
  86     -0.000521105586
  87      0.000645216636
  88      0.000119526773
  89      0.000155303573
  90     -0.000021602881
 Ene=  -0.10234169935348E+02
 Spin= Alpha
 Occup=    0.004871
   1     -0.000000343176
   2      0.000000691912
   3     -0.000006432142
   4     -0.000095706933
   5      0.000012215894
   6     -0.000000013121
   7      0.000000010419
   8     -0.000000026103