[Molden Format]
[Atoms] (AU)
NI   1   28          -0.9902780674         0.6614403704        -0.1549977786
C    2    6           1.8261682880        -1.3279197774         1.6080079396
C    3    6           2.2022957966        -1.3629061162        -0.9773589219
H    4    1           2.8533003317        -0.0019829452         2.8224274924
H    5    1           0.9404398731        -2.9246573493         2.5846681936
H    6    1           1.6270116515        -2.9898408920        -2.1220757223
H    7    1           3.5396625120        -0.0675571378        -1.8839224323
[GTO]
  1 0
 s    6  1.00
    71074.8032110000         0.0014260387
    10672.0209410000         0.0109282370
     2428.1389007000         0.0542126269
      685.5359514800         0.1887476890
      223.1007286300         0.3832461698
       76.8420140420         0.2955063714
 s    3  1.00
      148.7112201600        -0.1101444306
       17.4591549870         0.6452142699
        7.1625280665         0.4479783810
 s    3  1.00
       12.5561371250        -0.2264540322
        2.0735740488         0.7232095929
        0.8538264060         0.4486802648
 s    1  1.00
        0.1053676627         1.0000000000
 s    1  1.00
        0.0381340877         1.0000000000
 p    5  1.00
      916.7360866200         0.0093439636
      216.0613991300         0.0697373749
       68.3839148170         0.2707349501
       24.5938439520         0.5307830155
        9.1392960204         0.3441022944
 p    3  1.00
        4.7193371746         0.3407608202
        1.8161849234         0.5658016961
        0.6784075072         0.2361671736
 p    1  1.00
        0.1465880000         1.0000000000
 d    4  1.00
       47.0938321080         0.0289823169
       13.1464639750         0.1549499595
        4.4170548925         0.3763311511
        1.4771565078         0.4736509601
 d    1  1.00
        0.4373592179         1.0000000000
 f    1  1.00
        2.1740000000         1.0000000000

  2 0
 s    5  1.00
     1238.4016938000         0.0054568832
      186.2900499200         0.0406384092
       42.2511763460         0.1802559389
       11.6765579320         0.4631512175
        3.5930506482         0.4408717331
 s    1  1.00
        0.4024514736         1.0000000000
 s    1  1.00
        0.1309018267         1.0000000000
 p    3  1.00
        9.4680970621         0.0383878717
        2.0103545142         0.2111702511
        0.5477100471         0.5132817211
 p    1  1.00
        0.1526861379         1.0000000000
 d    1  1.00
        0.8000000000         1.0000000000

  3 0
 s    5  1.00
     1238.4016938000         0.0054568832
      186.2900499200         0.0406384092
       42.2511763460         0.1802559389
       11.6765579320         0.4631512175
        3.5930506482         0.4408717331
 s    1  1.00
        0.4024514736         1.0000000000
 s    1  1.00
        0.1309018267         1.0000000000
 p    3  1.00
        9.4680970621         0.0383878717
        2.0103545142         0.2111702511
        0.5477100471         0.5132817211
 p    1  1.00
        0.1526861379         1.0000000000
 d    1  1.00
        0.8000000000         1.0000000000

  4 0
 s    3  1.00
       13.0107010000         0.0196821580
        1.9622572000         0.1379652400
        0.4445379600         0.4783193500
 s    1  1.00
        0.1219496200         1.0000000000
 p    1  1.00
        0.8000000000         1.0000000000

  5 0
 s    3  1.00
       13.0107010000         0.0196821580
        1.9622572000         0.1379652400
        0.4445379600         0.4783193500
 s    1  1.00
        0.1219496200         1.0000000000
 p    1  1.00
        0.8000000000         1.0000000000

  6 0
 s    3  1.00
       13.0107010000         0.0196821580
        1.9622572000         0.1379652400
        0.4445379600         0.4783193500
 s    1  1.00
        0.1219496200         1.0000000000
 p    1  1.00
        0.8000000000         1.0000000000

  7 0
 s    3  1.00
       13.0107010000         0.0196821580
        1.9622572000         0.1379652400
        0.4445379600         0.4783193500
 s    1  1.00
        0.1219496200         1.0000000000
 p    1  1.00
        0.8000000000         1.0000000000

[5D7F]
[9G]

[MO]
 Sym= A
 Ene=        -3.0012031718e+02
 Spin= Alpha
 Occup=         1.0000000000e+00
  1         9.9540131174e-01
  2         1.4670574850e-02
  3        -3.2225392915e-03
  4         2.2945666633e-03
  5        -7.6799951230e-04
  6         1.1656162112e-05
  7        -7.7887636325e-06
  8         1.8253190769e-06
  9        -4.4187306894e-05
 10         2.9523792818e-05
 11        -6.9035207457e-06
 12         7.0618490544e-04
 13        -4.7173958724e-04
 14         1.1027096055e-04
 15         1.8245564691e-05
 16        -9.1862320818e-06
 17         8.5446179456e-06
 18        -2.4107187572e-05
 19         5.7474852913e-05
 20        -7.9519498926e-05
 21         3.8511178795e-05
 22        -3.4457160324e-05
 23         9.6594118467e-05
 24        -2.3055082312e-04
 25        -1.9206876967e-07
 26        -4.7739697748e-07
 27         2.2577195248e-07
 28         2.5169779739e-08
 29        -1.0349665792e-06
 30        -9.7366509132e-07
 31        -5.2192785866e-06
 32        -2.4537104996e-06
 33         2.4824275747e-04
 34        -1.0440147299e-03
 35         2.3400343399e-05
 36        -1.6764682410e-05
 37         1.7835464409e-05
 38         3.7849527976e-04
 39        -2.5226174192e-04
 40         5.3469987258e-05
 41         2.7953996960e-05
 42        -4.2490484940e-05
 43         2.9565829457e-05
 44        -2.4235749709e-05
 45         6.4517533980e-05
 46        -2.3361075912e-06
 47         2.4680077714e-04
 48        -1.0329171177e-03
 49         2.8074926644e-05
 50        -1.7561553590e-05
 51        -9.8231441675e-06
 52         3.7630575089e-04
 53        -2.5228413348e-04
 54         7.0320339746e-05
 55         4.3944029683e-05
 56         1.3433623524e-05
 57        -8.6123604418e-06
 58        -3.2276871642e-05
 59         7.1396631462e-05
 60         6.2287162662e-05
 61         2.1983117346e-04
 62        -1.7631986565e-05
 63         1.7639950353e-05
 64        -1.5336029434e-06
 65         6.2276935413e-05
 66         2.2003501275e-04
 67        -2.3139832342e-05
 68         9.4363749614e-06
 69        -2.2679864248e-06
 70         6.2002287578e-05
 71         2.1938895239e-04
 72        -2.2410699337e-05
 73         9.3030796553e-06
 74        -5.0747225979e-06
 75         6.2036475128e-05
 76         2.1932435163e-04
 77        -1.7050225173e-05
 78         1.7332805222e-05
 79        -4.4450378977e-06
 Sym= A
 Ene=        -3.5883913681e+01
 Spin= Alpha
 Occup=         1.0000000000e+00
  1         3.3819426903e-01
  2        -1.0449698050e+00
  3        -1.7721130813e-02
  4         7.3009873812e-03
  5        -2.5186670517e-03
  6        -2.1622803574e-05
  7         1.4527093732e-05
  8        -3.5298317830e-06
  9        -1.6856212008e-04
 10         1.1262601339e-04
 11        -2.6404170735e-05
 12         2.0717623910e-03
 13        -1.3840113780e-03
 14         3.2397487513e-04
 15         2.5573419019e-04
 16        -5.6468920642e-05
 17        -1.1351487150e-05
 18         5.9659135913e-05
 19        -1.3012408091e-04
 20        -2.8921824782e-04
 21         1.2024867251e-04
 22        -8.9114511051e-05
 23         2.4104479852e-04
 24        -5.7905340318e-04
 25        -8.9480065246e-07
 26        -2.2019051642e-06
 27         1.3642676085e-06
 28         3.6274936381e-07
 29        -2.0020189811e-06
 30        -1.6612880123e-06
 31        -8.7331587338e-06
 32        -4.6137053116e-06
 33         6.8223354802e-04
 34        -3.0630675665e-03
 35         7.6334012836e-05
 36        -5.4751916728e-05
 37         5.8913845295e-05
 38         1.1044852502e-03
 39        -7.3351860019e-04
 40         1.2633490055e-04
 41         8.1317495137e-05
 42        -1.1591206584e-04
 43         7.9693537337e-05
 44        -6.4838519979e-05
 45         1.7297670153e-04
 46        -4.2755546876e-06
 47         6.7734788710e-04
 48        -3.0251906888e-03
 49         9.1463765554e-05
 50        -5.7153782146e-05
 51        -3.2761787023e-05
 52         1.0883081620e-03
 53        -7.3226506853e-04
 54         2.3549325074e-04
 55         1.2425431225e-04
 56         3.4500329357e-05
 57        -2.3051231564e-05
 58        -8.6374654448e-05
 59         1.9127096307e-04
 60         1.8290655403e-04
 61         6.6410627538e-04
 62        -4.6150892420e-05
 63         4.1615234910e-05
 64         2.9246520058e-06
 65         1.8295713371e-04
 66         6.6491732230e-04
 67        -5.6963179310e-05
 68         2.5769272719e-05
 69         1.3886763698e-06
 70         1.8201033309e-04
 71         6.6265438515e-04
 72        -5.2827680984e-05
 73         2.5195871428e-05
 74        -1.9442574854e-05
 75         1.8208405952e-04
 76         6.6243884726e-04
 77        -4.2539288044e-05
 78         4.0402032394e-05
 79        -1.8291741772e-05
 Sym= A
 Ene=        -3.1293657806e+01
 Spin= Alpha
 Occup=         1.0000000000e+00
  1        -1.6678187947e-08
  2         5.0085714101e-08
  3         1.1370314717e-09
  4         6.1900610042e-07
  5        -7.2392050481e-07
  6         5.4308288657e-01
  7         8.2865765869e-01
  8         6.8026324546e-02
  9         1.0274157997e-02
 10         1.5676612359e-02
 11         1.2869391936e-03
 12        -1.4912802318e-03
 13        -2.2753864404e-03
 14        -1.8686346233e-04
 15         7.4852641027e-07
 16         6.3226947393e-06
 17         3.4730536426e-06
 18         4.5149678062e-05
 19         1.9173790001e-05
 20        -2.0040399972e-06
 21        -1.7019167515e-05
 22        -9.2957618644e-06
 23        -1.2200085781e-04
 24        -5.1855386851e-05
 25        -1.5277316379e-05
 26        -4.9076431664e-05
 27        -7.4801475622e-05
 28        -8.3916784519e-06
 29         1.8185888291e-05
 30        -1.1877924910e-04
 31         2.0375100976e-05
 32        -3.2428331051e-08
 33         4.5244838362e-07
 34        -1.9710841541e-06
 35        -1.9070654298e-05
 36        -2.9005708603e-05
 37        -2.4214319378e-06
 38         1.0845379735e-04
 39         1.6558253752e-04
 40         1.3326153637e-05
 41        -3.5721549526e-06
 42        -2.2169639762e-05
 43        -2.1249390416e-05
 44        -9.3573707902e-05
 45        -3.8675681144e-05
 46        -3.2858708284e-08
 47         4.4133834648e-07
 48        -1.2565527559e-06
 49        -1.9044457020e-05
 50        -2.8963206727e-05
 51        -2.3440961641e-06
 52         1.0652673053e-04
 53         1.6233130971e-04
 54         1.3870438315e-05
 55         4.4596901134e-07
 56        -4.0584716002e-06
 57         7.0581397261e-06
 58        -9.6824892483e-05
 59        -4.2536938512e-05
 60        -1.0278912086e-04
 61         2.6240531391e-04
 62        -7.9503018590e-05
 63        -5.2259244517e-06
 64        -3.6454240430e-05
 65         1.0300993964e-04
 66        -2.6037043613e-04
 67         2.4332951842e-05
 68        -7.8430890499e-05
 69         2.9349645224e-05
 70         1.0212072165e-04
 71        -2.6342724663e-04
 72         3.1806348095e-05
 73        -7.9672551675e-05
 74        -1.9398459458e-05
 75        -1.0184481356e-04
 76         2.6488798847e-04
 77        -8.7193643470e-05
 78        -4.4554201528e-06
 79         1.2571526435e-05
 Sym= A
 Ene=        -3.1274462654e+01
 Spin= Alpha
 Occup=         1.0000000000e+00
  1        -5.5093723083e-05
  2         1.5800206436e-04
  3        -3.3384868940e-04
  4         1.4499440364e-03
  5         1.0823835922e-03
  6        -8.1715944406e-01
  7         5.4697645918e-01
  8        -1.3922385022e-01
  9        -1.5416810230e-02
 10         1.0319224989e-02
 11        -2.6248485632e-03
 12         3.8947699018e-03
 13        -2.6051378370e-03
 14         6.4649856127e-04
 15         5.6828260939e-05
 16        -2.9644927637e-05
 17         2.6731345823e-05
 18        -7.2220951400e-05
 19         1.7262829230e-04
 20        -2.1754492335e-04
 21         1.0689146020e-04
 22        -9.1895371672e-05
 23         2.4749680913e-04
 24        -5.9237985739e-04
 25         4.1066841265e-06
 26         9.6234992837e-06
 27        -7.2232374532e-06
 28        -2.5194891205e-06
 29        -1.7477999259e-06
 30        -3.4443533329e-06
 31        -1.9775230338e-05
 32         4.3590103986e-05
 33        -1.4526353562e-04
 34        -1.0711315795e-03
 35         1.8645888525e-04
 36        -1.3566143219e-04
 37         1.6605875974e-04
 38         7.0396973900e-04
 39        -4.7203177317e-04
 40         1.5960407238e-04
 41         8.9997507373e-05
 42        -8.3906557968e-05
 43         5.2544481107e-05
 44        -4.2883119168e-05
 45         1.1516643402e-04
 46         4.3924544336e-05
 47        -1.5483961349e-04
 48        -1.0210566857e-03
 49         2.2599261073e-04
 50        -1.3966331282e-04
 51        -1.0146511959e-04
 52         6.9741919087e-04
 53        -4.6265817809e-04
 54         6.8966684276e-05
 55         1.1445641664e-04
 56         1.2288936904e-05
 57        -1.3374595892e-05
 58        -5.5406390442e-05
 59         1.2406393503e-04
 60         1.6552470007e-04
 61        -4.6280443747e-04
 62         6.2078108790e-05
 63        -1.6879130019e-05
 64         8.9997349339e-05
 65         1.6646070470e-04
 66        -4.6042112091e-04
 67         3.3539714405e-05
 68        -5.9780653547e-05
 69         8.5914044808e-05
 70         1.6231852916e-04
 71        -4.6049993046e-04
 72         5.8205077310e-05
 73        -6.2030092471e-05
 74        -7.0200484870e-05
 75         1.6210868561e-04
 76        -4.6079318810e-04
 77         8.5550810522e-05
 78        -2.0750216680e-05
 79        -6.7056602370e-05
 Sym= A
 Ene=        -3.1271714221e+01
 Spin= Alpha
 Occup=         1.0000000000e+00
  1        -5.6774301292e-07
  2         1.5986831367e-06
  3        -3.7376317239e-06
  4         1.7063001356e-05
  5         1.3050043435e-05
  6        -1.5364599748e-01
  7         2.0161497969e-02
  8         9.8102512134e-01
  9        -2.8710628175e-03
 10         3.7752980979e-04
 11         1.8322058378e-02
 12         4.9091837443e-04
 13        -7.3095757601e-05
 14        -3.0298098016e-03
 15         2.9730021748e-05
 16         1.0459379009e-04
 17        -7.1218896755e-05
 18        -1.5582631236e-05
 19         1.4065581357e-05
 20        -7.7547773689e-05
 21        -2.7051741512e-04
 22         1.8416221523e-04
 23         4.0989337549e-05
 24        -3.7960000072e-05
 25        -7.2712363490e-06
 26         3.2898818169e-07
 27         4.2068612773e-06
 28        -8.9872727785e-06
 29         2.0375129928e-05
 30         1.1924936408e-06
 31        -4.2247514426e-06
 32         5.0390247973e-06
 33        -8.2630964421e-05
 34        -3.8550380355e-04
 35        -2.0004948644e-05
 36         1.3358147806e-05
 37        -2.7563066115e-06
 38        -6.6172420544e-04
 39         3.8347210814e-04
 40         5.8605067312e-04
 41        -1.1249638570e-04
 42        -6.5994720917e-06
 43         1.3773823610e-05
 44         3.2199356757e-05
 45        -7.1515489272e-05
 46        -3.9862479574e-06
 47         7.7263969582e-05
 48         3.6459508590e-04
 49         2.5284793697e-05
 50        -1.6657915939e-05
 51         1.2451057669e-06
 52         4.8114508452e-04
 53        -3.7584846818e-04
 54         7.6298886873e-04
 55         9.3837891276e-05
 56        -6.9257653797e-05
 57         3.7579981280e-05
 58        -2.2615589772e-05
 59         6.5389311309e-05
 60        -9.6630695359e-05
 61         1.8659177986e-04
 62         6.8464275607e-06
 63        -1.1671122353e-05
 64        -8.6037226489e-05
 65        -9.7304507099e-05
 66         1.8477787316e-04
 67         1.9946665737e-05
 68         7.8879920642e-06
 69        -8.4197132898e-05
 70         1.0056705718e-04
 71        -1.9733847883e-04
 72         6.7203392078e-06
 73        -1.2135600653e-05
 74        -8.7842907116e-05
 75         1.0021244935e-04
 76        -1.9918991661e-04
 77         2.0665472009e-05
 78         8.5901834656e-06
 79        -8.6310650393e-05
 Sym= A
 Ene=        -1.0256436671e+01
 Spin= Alpha
 Occup=         1.0000000000e+00
  1         1.8648810805e-06
  2        -1.9609132022e-05
  3        -2.3046837366e-05
  4         9.5419950060e-03
  5        -1.4337024761e-03
  6        -6.4973074665e-05
  7         4.3309762161e-05
  8        -9.9224448196e-06
  9         2.3765850867e-04
 10        -1.5842292346e-04
 11         3.6007502309e-05
 12         4.3828867319e-03
 13        -2.9219090471e-03
 14         6.0086039248e-04
 15        -9.2737875625e-05
 16         3.6241077222e-05
 17        -2.7093127629e-05
 18         7.7465191617e-05
 19        -1.8533571630e-04
 20         1.5724030145e-04
 21        -6.3194896468e-05
 22         4.1329216189e-05
 23        -1.0298641906e-04
 24         2.4849661941e-04
 25         5.7705020883e-06
 26         1.7128647783e-05
 27        -1.0964059436e-05
 28        -2.4731632558e-06
 29         1.0803022781e-05
 30         9.3916835024e-06
 31         4.9572708313e-05
 32         6.7804078683e-01
 33         3.1877898671e-02
 34        -2.1984329230e-02
 35        -6.2182097489e-04
 36         2.5879944584e-04
 37         1.8239193285e-03
 38         2.7619635325e-03
 39        -1.8388008000e-03
 40         2.7905164283e-04
 41        -2.6607158503e-04
 42         1.8634455153e-04
 43         1.5103340318e-05
 44        -4.9859057980e-04
 45         1.1168034436e-03
 46         7.1957306954e-01
 47         3.4060212777e-02
 48        -2.4463817592e-02
 49        -7.9519218023e-05
 50         2.0307634324e-04
 51        -1.8475913596e-03
 52         2.8449615254e-03
 53        -1.8752563638e-03
 54         1.8595976603e-04
 55        -2.7310309154e-04
 56        -2.4476812963e-04
 57         3.0176714268e-04
 58        -4.7948775141e-04
 59         1.1617330924e-03
 60        -2.0885930458e-03
 61         5.5574718011e-03
 62         7.0162744185e-04
 63         1.3331459056e-03
 64         4.4364208393e-04
 65        -2.0919924804e-03
 66         5.5521138780e-03
 67        -9.6670215497e-04
 68        -1.2153151995e-03
 69         2.3721476064e-04
 70        -2.2429226839e-03
 71         5.9044361675e-03
 72        -9.0601495105e-04
 73        -1.3281751912e-03
 74        -5.3706063389e-04
 75        -2.2434752998e-03
 76         5.9012014221e-03
 77         8.8698664667e-04
 78         1.4103268969e-03
 79        -3.1404519008e-04
 Sym= A
 Ene=        -1.0255864226e+01
 Spin= Alpha
 Occup=         1.0000000000e+00
  1        -9.6484988452e-08
  2        -3.2363015131e-07
  3        -3.4398457461e-06
  4         2.7324996619e-04
  5        -3.6939283356e-05
  6        -9.4314484068e-07
  7         1.1555104014e-06
  8        -6.6593731052e-06
  9         2.2219527126e-06
 10        -3.9899335860e-06
 11         3.1272032025e-05
 12        -2.5396314421e-04
 13        -5.0337946337e-05
 14         2.6481126766e-03
 15         1.3994134694e-05
 16         6.0728763742e-05
 17        -4.1335650398e-05
 18        -6.4462600601e-06
 19         2.2254004767e-06
 20         4.4130913757e-05
 21         1.4585586853e-04
 22        -9.9945371550e-05
 23        -2.1613255977e-05
 24         1.9304533594e-05
 25         2.5323620703e-05
 26        -1.3636658737e-05
 27         8.9093957767e-06
 28        -1.4351219617e-05
 29         3.6230181423e-05
 30         2.3120137578e-06
 31        -5.8640647688e-06
 32         7.1909389355e-01
 33         3.7518797916e-02
 34        -4.0804984341e-02
 35         3.0747592031e-04
 36        -9.1890812499e-05
 37        -1.3287432989e-03
 38         2.1535477903e-07
 39        -5.1627317157e-04
 40         6.2734883313e-03
 41         1.7881358789e-03
 42        -2.9920834073e-04
 43         8.3155294465e-05
 44        -6.7608968534e-04
 45         1.5987895668e-03
 46        -6.7753162628e-01
 47        -3.5558921967e-02
 48         3.9435939041e-02
 49         7.7360870123e-05
 50         6.9933918381e-05
 51        -1.4758201175e-03
 52        -1.6163189223e-03
 53         5.6922307729e-04
 54         6.0113921881e-03
 55        -1.6637966120e-03
 56         8.0962290132e-04
 57        -4.2269904738e-04
 58         5.7458149584e-04
 59        -1.4707037002e-03
 60        -2.6811947905e-03
 61         5.9916833126e-03
 62         1.0821706916e-03
 63         1.5267805024e-03
 64         1.2271337181e-03
 65        -2.6829844671e-03
 66         5.9912275172e-03
 67        -1.0478754330e-03
 68        -1.7277863743e-03
 69         9.6195595200e-04
 70         2.5510564096e-03
 71        -5.6541233873e-03
 72         6.8163751190e-04
 73         1.6813532380e-03
 74         1.1439440942e-03
 75         2.5503802761e-03
 76        -5.6558543498e-03
 77        -1.3442279325e-03
 78        -1.4138181771e-03
 79         8.9122441958e-04
 Sym= A
 Ene=        -4.0778528675e+00
 Spin= Alpha
 Occup=         1.0000000000e+00
  1         1.2713632978e-01
  2        -4.7349087267e-01
  3         1.0846973559e+00
  4         2.0923456308e-02
  5        -7.4183135850e-03
  6        -8.8385217067e-04
  7         5.9011918890e-04
  8        -1.4033484257e-04
  9         2.2100739357e-03
 10        -1.4755439316e-03
 11         3.5106975360e-04
 12         2.1818460901e-03
 13        -1.4577289519e-03
 14         3.4314977304e-04
 15        -4.8385527039e-03
 16         7.9823622476e-04
 17         6.9821288622e-04
 18        -2.5834836797e-03
 19         5.8870165365e-03
 20        -6.4762596555e-04
 21         2.0573649555e-04
 22        -8.5546926255e-05
 23         1.9556509629e-04
 24        -4.8637290050e-04
 25         1.0467552463e-07
 26        -1.5599119466e-07
 27        -9.9256677626e-07
 28        -9.0422956609e-07
 29        -9.1929779879e-06
 30        -9.5505421400e-06
 31        -5.2054542327e-05
 32        -2.4000560102e-04
 33         4.7583562561e-04
 34        -3.5570257887e-03
 35        -2.5685782692e-04
 36         1.7680239305e-04
 37        -1.0445686979e-04
 38         1.1324746432e-03
 39        -7.1054549321e-04
 40        -3.4581531661e-04
 41        -2.7363301903e-05
 42         1.8426523375e-04
 43        -1.4247465283e-04
 44         1.1173360904e-04
 45        -2.9645568449e-04
 46        -2.4219296537e-04
 47         4.7151224709e-04
 48        -3.4925885377e-03
 49        -2.7919884344e-04
 50         1.8121390543e-04
 51         2.1968643157e-05
 52         9.7178209227e-04
 53        -6.9484238686e-04
 54         7.0654497358e-04
 55        -1.0865505233e-04
 56        -1.0272694940e-04
 57         5.2468384407e-05
 58         1.5344215636e-04
 59        -3.3262636032e-04
 60         1.6742369957e-04
 61         1.1047573311e-03
 62         2.0311563112e-05
 63        -1.3069947067e-04
 64         8.5523651687e-05
 65         1.6867332919e-04
 66         1.1085835333e-03
 67         1.2041498361e-04
 68         2.3852032624e-05
 69         9.7255205568e-05
 70         1.6657619924e-04
 71         1.1041203872e-03
 72         1.4583126733e-04
 73         2.1395774339e-05
 74        -6.0597060033e-05
 75         1.6643597243e-04
 76         1.1036341521e-03
 77         4.4342981652e-05
 78        -1.3487951383e-04
 79        -7.3557060482e-05
 Sym= A
 Ene=        -2.6846801884e+00
 Spin= Alpha
 Occup=         1.0000000000e+00
  1         2.1082136281e-07
  2        -7.6171795528e-07
  3         1.9444028460e-06
  4        -5.7790788871e-07
  5        -3.2700653739e-07
  6         2.2116580682e-01
  7         3.3745331909e-01
  8         2.7697374978e-02
  9        -5.8539320169e-01
 10        -8.9318907469e-01
 11        -7.3310870831e-02
 12        -4.0642323641e-03
 13        -6.2000602540e-03
 14        -5.0879458861e-04
 15        -1.3499655080e-05
 16        -1.1324567880e-04
 17        -6.3725055247e-05
 18        -8.0133011883e-04
 19        -3.4028476304e-04
 20        -6.9682563768e-06
 21        -6.0585484012e-05
 22        -3.3727876625e-05
 23        -4.3215656837e-04
 24        -1.8384269583e-04
 25         6.7270018789e-04
 26         2.1536772203e-03
 27         3.2993145424e-03
 28         2.7387289145e-04
 29        -7.9409190030e-04
 30         4.7148318078e-03
 31        -8.0183025544e-04
 32         3.1146940269e-07
 33        -4.6600726468e-08
 34        -2.9249899603e-06
 35        -1.4262184008e-04
 36        -2.1877091434e-04
 37        -1.7627968493e-05
 38        -1.7899981934e-04
 39        -2.7350356797e-04
 40        -2.1508883449e-05
 41         1.0632776005e-05
 42         6.6154314948e-05
 43         6.2420653570e-05
 44         2.8797583561e-04
 45         1.1896736437e-04
 46         1.3364671629e-07
 47        -6.7971986514e-08
 48         1.5629750245e-06
 49        -1.4416165194e-04
 50        -2.2032893811e-04
 51        -1.8135729260e-05
 52        -1.8353432080e-04
 53        -2.7991788607e-04
 54        -2.1808484308e-05
 55        -8.2930374960e-07
 56         1.4896023797e-05
 57        -1.8136798146e-05
 58         2.9897556654e-04
 59         1.3084810182e-04
 60         4.9332647272e-05
 61         5.5822810870e-04
 62        -8.1582660594e-05
 63         6.2870891311e-05
 64        -7.7116701184e-05
 65        -4.9036411151e-05
 66        -5.5675062969e-04
 67         8.4447971574e-05
 68        -5.8436699365e-05
 69         7.7277212858e-05
 70        -5.0331619350e-05
 71        -5.6123587658e-04
 72         1.0322908647e-04
 73        -6.0020764641e-05
 74        -4.8330294281e-05
 75         5.0360838269e-05
 76         5.6174541456e-04
 77        -9.9880956410e-05
 78         6.4993577137e-05
 79         4.8760762050e-05
 Sym= A
 Ene=        -2.6434226964e+00
 Spin= Alpha
 Occup=         1.0000000000e+00
  1        -3.6858610789e-04
  2         1.3635830126e-03
  3        -3.3406205948e-03
  4         2.9490673966e-04
  5         1.3690569132e-03
  6        -3.3258100373e-01
  7         2.2248161773e-01
  8        -5.4934802302e-02
  9         8.8076593878e-01
 10        -5.8919245268e-01
 11         1.4548192790e-01
 12         8.2506059607e-03
 13        -5.5171766667e-03
 14         1.3458847226e-03
 15        -7.9291598302e-04
 16         3.7374710243e-04
 17        -3.1251439512e-04
 18         8.4675900566e-04
 19        -2.0266459430e-03
 20        -2.8449819817e-04
 21         1.2340342268e-04
 22        -9.7913506375e-05
 23         2.7029076742e-04
 24        -6.4639639658e-04
 25        -1.1108336505e-04
 26        -2.4191560832e-04
 27         1.8159521838e-04
 28         6.5303227772e-05
 29         3.0735840868e-05
 30         7.8476060312e-05
 31         4.5431519308e-04
 32        -1.2705178936e-03
 33         1.7069197911e-03
 34        -2.1613598359e-04
 35        -1.7953196557e-03
 36         1.2690528361e-03
 37        -1.1398129732e-03
 38         2.3722017215e-04
 39        -1.5477149040e-04
 40         2.0717576557e-05
 41        -1.5394334868e-04
 42         6.0971991367e-04
 43        -4.4040081902e-04
 44         2.5866803852e-04
 45        -7.2252015026e-04
 46        -1.2738620709e-03
 47         1.7180878692e-03
 48        -2.6591671245e-04
 49        -2.0437129314e-03
 50         1.2939796822e-03
 51         5.4707262485e-04
 52         2.3620936230e-04
 53        -1.5824272238e-04
 54         3.6391824184e-05
 55        -4.1388382294e-04
 56        -3.4388683910e-04
 57         2.0883278832e-04
 58         3.9127397702e-04
 59        -8.2929381879e-04
 60         9.8977568209e-05
 61        -6.9111053299e-04
 62         5.1411782815e-05
 63        -1.2810311433e-04
 64         5.6398940183e-05
 65         9.9624067381e-05
 66        -6.8866729207e-04
 67         1.3311539910e-04
 68        -2.9824666345e-06
 69         6.6346463749e-05
 70         9.9824765510e-05
 71        -6.8217884289e-04
 72         1.4502452950e-04
 73        -3.5078993901e-06
 74        -2.4784099598e-05
 75         9.9928657154e-05
 76        -6.8215100787e-04
 77         6.3413010413e-05
 78        -1.2827653763e-04
 79        -3.4935466820e-05
 Sym= A
 Ene=        -2.6352750147e+00
 Spin= Alpha
 Occup=         1.0000000000e+00
  1        -2.1427812256e-06
  2         7.8284523650e-06
  3        -1.9941747407e-05
  4         1.8517923593e-06
  5         1.2850581436e-05
  6        -6.1098548826e-02
  7         7.2656237501e-03
  8         3.9935545259e-01
  9         1.6181108343e-01
 10        -1.9242223737e-02
 11        -1.0576353636e+00
 12         1.2443059643e-03
 13        -1.5594435150e-04
 14        -8.0338268085e-03
 15        -2.1729966201e-04
 16        -7.5175586108e-04
 17         5.1182827820e-04
 18         1.1168202867e-04
 19        -9.9988814548e-05
 20        -6.5391379903e-05
 21        -2.2413710559e-04
 22         1.5228931497e-04
 23         3.4415820528e-05
 24        -3.2179583882e-05
 25         1.2453288129e-03
 26        -4.3760217469e-04
 27        -6.7555707627e-06
 28         1.6077249053e-04
 29        -2.6000445813e-04
 30        -1.7491287081e-05
 31         5.4371026816e-05
 32         4.7081180786e-04
 33        -4.6572844204e-04
 34        -4.6870175695e-03
 35         1.0168640314e-03
 36        -6.8304717593e-04
 37         2.1175910087e-04
 38        -2.6644016864e-05
 39        -1.4572137502e-04
 40         1.9545971764e-03
 41         2.9273987434e-04
 42        -1.9985034898e-04
 43         1.2229606281e-04
 44        -1.4616413922e-04
 45         3.7561659895e-04
 46        -4.9314111257e-04
 47         4.9795185916e-04
 48         4.6858243046e-03
 49        -1.0682137995e-03
 50         7.0785501813e-04
 51        -1.0072203477e-04
 52        -5.2586535782e-04
 53         1.9423108343e-04
 54         1.8738380532e-03
 55        -3.4845810697e-04
 56         2.0305268503e-05
 57        -3.9555906530e-07
 58         1.7684941431e-04
 59        -4.0921733132e-04
 60         9.0321531761e-05
 61         6.1606582844e-04
 62        -7.0381842521e-05
 63         9.9561849875e-05
 64        -1.0287361716e-04
 65         8.9235123401e-05
 66         6.1351785613e-04
 67        -1.1146189928e-04