[Molden Format]
[Atoms] (AU)
C    1    6           0.0000000000         0.0000000000         1.3668710319
H    2    1          -0.0000000000         1.7631352620         2.4609884435
H    3    1           0.0000000000        -1.7631352620         2.4609884435
C    4    6           0.0000000000         0.0000000000        -1.3668710319
H    5    1           1.7631352620         0.0000000000        -2.4609884435
H    6    1          -1.7631352620        -0.0000000000        -2.4609884435
[GTO]
  1 0
 s    5  1.00
     1238.4016938000         0.0054568832
      186.2900499200         0.0406384092
       42.2511763460         0.1802559389
       11.6765579320         0.4631512175
        3.5930506482         0.4408717331
 s    1  1.00
        0.4024514736         1.0000000000
 s    1  1.00
        0.1309018267         1.0000000000
 p    3  1.00
        9.4680970621         0.0383878717
        2.0103545142         0.2111702511
        0.5477100471         0.5132817211
 p    1  1.00
        0.1526861379         1.0000000000
 d    1  1.00
        0.8000000000         1.0000000000

  2 0
 s    3  1.00
       13.0107010000         0.0196821580
        1.9622572000         0.1379652400
        0.4445379600         0.4783193500
 s    1  1.00
        0.1219496200         1.0000000000
 p    1  1.00
        0.8000000000         1.0000000000

  3 0
 s    3  1.00
       13.0107010000         0.0196821580
        1.9622572000         0.1379652400
        0.4445379600         0.4783193500
 s    1  1.00
        0.1219496200         1.0000000000
 p    1  1.00
        0.8000000000         1.0000000000

  4 0
 s    5  1.00
     1238.4016938000         0.0054568832
      186.2900499200         0.0406384092
       42.2511763460         0.1802559389
       11.6765579320         0.4631512175
        3.5930506482         0.4408717331
 s    1  1.00
        0.4024514736         1.0000000000
 s    1  1.00
        0.1309018267         1.0000000000
 p    3  1.00
        9.4680970621         0.0383878717
        2.0103545142         0.2111702511
        0.5477100471         0.5132817211
 p    1  1.00
        0.1526861379         1.0000000000
 d    1  1.00
        0.8000000000         1.0000000000

  5 0
 s    3  1.00
       13.0107010000         0.0196821580
        1.9622572000         0.1379652400
        0.4445379600         0.4783193500
 s    1  1.00
        0.1219496200         1.0000000000
 p    1  1.00
        0.8000000000         1.0000000000

  6 0
 s    3  1.00
       13.0107010000         0.0196821580
        1.9622572000         0.1379652400
        0.4445379600         0.4783193500
 s    1  1.00
        0.1219496200         1.0000000000
 p    1  1.00
        0.8000000000         1.0000000000

[5D7F]
[9G]

[MO]
 Sym= A1
 Ene=        -1.0247817787e+01
 Spin= Alpha
 Occup=         1.0000000000e+00
  1         6.9923521891e-01
  2         3.0832223907e-02
  3        -1.7489831145e-02
  4         0.0000000000e+00
  5         0.0000000000e+00
  6         2.2647275677e-03
  7         0.0000000000e+00
  8         0.0000000000e+00
  9        -1.0870764453e-03
 10        -7.0519214672e-04
 11         0.0000000000e+00
 12         0.0000000000e+00
 13        -1.1246576479e-03
 14         0.0000000000e+00
 15        -2.7732876468e-03
 16         5.4437032673e-03
 17         0.0000000000e+00
 18         1.5013757638e-03
 19         6.1665462921e-04
 20        -2.7732876468e-03
 21         5.4437032673e-03
 22         0.0000000000e+00
 23        -1.5013757638e-03
 24         6.1665462921e-04
 25         6.9923518258e-01
 26         3.0832222099e-02
 27        -1.7489829675e-02
 28         0.0000000000e+00
 29         0.0000000000e+00
 30        -2.2647276191e-03
 31         0.0000000000e+00
 32         0.0000000000e+00
 33         1.0870766187e-03
 34        -7.0519223423e-04
 35         0.0000000000e+00
 36         0.0000000000e+00
 37         1.1246575804e-03
 38         0.0000000000e+00
 39        -2.7732874975e-03
 40         5.4437030355e-03
 41         1.5013756669e-03
 42         0.0000000000e+00
 43        -6.1665456921e-04
 44        -2.7732874975e-03
 45         5.4437030355e-03
 46        -1.5013756669e-03
 47         0.0000000000e+00
 48        -6.1665456921e-04
 Sym= A1
 Ene=        -1.0247600378e+01
 Spin= Alpha
 Occup=         1.0000000000e+00
  1         6.9860525554e-01
  2         3.4768690006e-02
  3        -2.8271823815e-02
  4         0.0000000000e+00
  5         0.0000000000e+00
  6        -9.8883199164e-04
  7         0.0000000000e+00
  8         0.0000000000e+00
  9         3.3377897290e-03
 10         1.6829218821e-03
 11         0.0000000000e+00
 12         0.0000000000e+00
 13        -1.2978284587e-03
 14         0.0000000000e+00
 15        -2.8697716226e-03
 16         4.4593566953e-03
 17         0.0000000000e+00
 18         1.8635243206e-03
 19         1.1536171977e-03
 20        -2.8697716226e-03
 21         4.4593566953e-03
 22         0.0000000000e+00
 23        -1.8635243206e-03
 24         1.1536171977e-03
 25        -6.9860529190e-01
 26        -3.4768691609e-02
 27         2.8271824724e-02
 28         0.0000000000e+00
 29         0.0000000000e+00
 30        -9.8883187387e-04
 31         0.0000000000e+00
 32         0.0000000000e+00
 33         3.3377896725e-03
 34        -1.6829218454e-03
 35         0.0000000000e+00
 36         0.0000000000e+00
 37        -1.2978285171e-03
 38         0.0000000000e+00
 39         2.8697717668e-03
 40        -4.4593569784e-03
 41        -1.8635243987e-03
 42         0.0000000000e+00
 43         1.1536172298e-03
 44         2.8697717668e-03
 45        -4.4593569784e-03
 46         1.8635243987e-03
 47         0.0000000000e+00
 48         1.1536172298e-03
 Sym= A1
 Ene=        -7.7502297413e-01
 Spin= Alpha
 Occup=         1.0000000000e+00
  1         1.9940676016e-01
  2        -3.9325697064e-01
  3        -1.3458946052e-01
  4         0.0000000000e+00
  5         0.0000000000e+00
  6         9.2059732369e-02
  7         0.0000000000e+00
  8         0.0000000000e+00
  9         2.1924068984e-02
 10        -7.7214678407e-03
 11         0.0000000000e+00
 12         0.0000000000e+00
 13        -5.2031434379e-03
 14         0.0000000000e+00
 15        -1.0450371842e-01
 16        -8.7436753777e-03
 17         0.0000000000e+00
 18         1.1920086772e-02
 19         7.8160782629e-03
 20        -1.0450371842e-01
 21        -8.7436753777e-03
 22         0.0000000000e+00
 23        -1.1920086772e-02
 24         7.8160782629e-03
 25         1.9940676015e-01
 26        -3.9325697062e-01
 27        -1.3458946053e-01
 28         0.0000000000e+00
 29         0.0000000000e+00
 30        -9.2059732371e-02
 31         0.0000000000e+00
 32         0.0000000000e+00
 33        -2.1924068988e-02
 34        -7.7214678409e-03
 35         0.0000000000e+00
 36         0.0000000000e+00
 37         5.2031434379e-03
 38         0.0000000000e+00
 39        -1.0450371842e-01
 40        -8.7436753767e-03
 41         1.1920086771e-02
 42         0.0000000000e+00
 43        -7.8160782628e-03
 44        -1.0450371842e-01
 45        -8.7436753767e-03
 46        -1.1920086771e-02
 47         0.0000000000e+00
 48        -7.8160782628e-03
 Sym= A1
 Ene=        -6.1368583050e-01
 Spin= Alpha
 Occup=         1.0000000000e+00
  1         1.6388952002e-01
  2        -3.3485466557e-01
  3        -1.8262009966e-01
  4         0.0000000000e+00
  5         0.0000000000e+00
  6        -1.4679251948e-01
  7         0.0000000000e+00
  8         0.0000000000e+00
  9        -3.7689535438e-02
 10         9.7753269368e-03
 11         0.0000000000e+00
 12         0.0000000000e+00
 13        -2.0793469457e-04
 14         0.0000000000e+00
 15        -1.7931464118e-01
 16        -2.7967644630e-02
 17         0.0000000000e+00
 18         1.5115632056e-02
 19         5.4372249338e-03
 20        -1.7931464118e-01
 21        -2.7967644630e-02
 22         0.0000000000e+00
 23        -1.5115632056e-02
 24         5.4372249338e-03
 25        -1.6388952003e-01
 26         3.3485466557e-01
 27         1.8262009967e-01
 28         0.0000000000e+00
 29         0.0000000000e+00
 30        -1.4679251947e-01
 31         0.0000000000e+00
 32         0.0000000000e+00
 33        -3.7689535436e-02
 34        -9.7753269365e-03
 35         0.0000000000e+00
 36         0.0000000000e+00
 37        -2.0793469478e-04
 38         0.0000000000e+00
 39         1.7931464118e-01
 40         2.7967644627e-02
 41        -1.5115632056e-02
 42         0.0000000000e+00
 43         5.4372249340e-03
 44         1.7931464118e-01
 45         2.7967644627e-02
 46         1.5115632056e-02
 47         0.0000000000e+00
 48         5.4372249340e-03
 Sym= B2
 Ene=        -4.4675030903e-01
 Spin= Alpha
 Occup=         1.0000000000e+00
  1         0.0000000000e+00
  2         0.0000000000e+00
  3         0.0000000000e+00
  4         0.0000000000e+00
  5         4.3191057460e-01
  6         0.0000000000e+00
  7         0.0000000000e+00
  8         1.6798409980e-01
  9         0.0000000000e+00
 10         0.0000000000e+00
 11         0.0000000000e+00
 12         7.9816670514e-03
 13         0.0000000000e+00
 14         0.0000000000e+00
 15         2.9032307526e-01
 16         9.7375652482e-02
 17         0.0000000000e+00
 18        -6.8805590769e-03
 19        -1.1016564903e-02
 20        -2.9032307526e-01
 21        -9.7375652482e-02
 22         0.0000000000e+00
 23        -6.8805590769e-03
 24         1.1016564903e-02
 25         0.0000000000e+00
 26         0.0000000000e+00
 27         0.0000000000e+00
 28         0.0000000000e+00
 29         1.8112207438e-01
 30         0.0000000000e+00
 31         0.0000000000e+00
 32         9.9031882739e-02
 33         0.0000000000e+00
 34         0.0000000000e+00
 35         0.0000000000e+00
 36         1.4503236254e-02
 37         0.0000000000e+00
 38         0.0000000000e+00
 39         0.0000000000e+00
 40         0.0000000000e+00
 41         0.0000000000e+00
 42         3.5269583061e-03
 43         0.0000000000e+00
 44         0.0000000000e+00
 45         0.0000000000e+00
 46         0.0000000000e+00
 47         3.5269583061e-03
 48         0.0000000000e+00
 Sym= B1
 Ene=        -4.4675030903e-01
 Spin= Alpha
 Occup=         1.0000000000e+00
  1         0.0000000000e+00
  2         0.0000000000e+00
  3         0.0000000000e+00
  4         1.8112207438e-01
  5         0.0000000000e+00
  6         0.0000000000e+00
  7         9.9031882742e-02
  8         0.0000000000e+00
  9         0.0000000000e+00
 10         0.0000000000e+00
 11        -1.4503236254e-02
 12         0.0000000000e+00
 13         0.0000000000e+00
 14         0.0000000000e+00
 15         0.0000000000e+00
 16         0.0000000000e+00
 17         3.5269583063e-03
 18         0.0000000000e+00
 19         0.0000000000e+00
 20         0.0000000000e+00
 21         0.0000000000e+00
 22         3.5269583063e-03
 23         0.0000000000e+00
 24         0.0000000000e+00
 25         0.0000000000e+00
 26         0.0000000000e+00
 27         0.0000000000e+00
 28         4.3191057460e-01
 29         0.0000000000e+00
 30         0.0000000000e+00
 31         1.6798409980e-01
 32         0.0000000000e+00
 33         0.0000000000e+00
 34         0.0000000000e+00
 35        -7.9816670509e-03
 36         0.0000000000e+00
 37         0.0000000000e+00
 38         0.0000000000e+00
 39         2.9032307526e-01
 40         9.7375652480e-02
 41        -6.8805590769e-03
 42         0.0000000000e+00
 43         1.1016564903e-02
 44        -2.9032307526e-01
 45        -9.7375652480e-02
 46        -6.8805590769e-03
 47         0.0000000000e+00
 48        -1.1016564903e-02
 Sym= A1
 Ene=        -4.2974114096e-01
 Spin= Alpha
 Occup=         1.0000000000e+00
  1         1.2897753940e-02
  2        -4.0275224088e-02
  3         1.1740791849e-02
  4         0.0000000000e+00
  5         0.0000000000e+00
  6         4.0704556337e-01
  7         0.0000000000e+00
  8         0.0000000000e+00
  9         1.5591054821e-01
 10        -1.1211190125e-02
 11         0.0000000000e+00
 12         0.0000000000e+00
 13        -5.5160650109e-03
 14         0.0000000000e+00
 15         1.6279978535e-01
 16         5.6920447729e-02
 17         0.0000000000e+00
 18        -1.0269202251e-02
 19         2.9983836269e-03
 20         1.6279978535e-01
 21         5.6920447729e-02
 22         0.0000000000e+00
 23         1.0269202251e-02
 24         2.9983836269e-03
 25         1.2897753937e-02
 26        -4.0275224082e-02
 27         1.1740791861e-02
 28         0.0000000000e+00
 29         0.0000000000e+00
 30        -4.0704556337e-01
 31         0.0000000000e+00
 32         0.0000000000e+00
 33        -1.5591054820e-01
 34        -1.1211190125e-02
 35         0.0000000000e+00
 36         0.0000000000e+00
 37         5.5160650107e-03
 38         0.0000000000e+00
 39         1.6279978535e-01
 40         5.6920447731e-02
 41        -1.0269202251e-02
 42         0.0000000000e+00
 43        -2.9983836269e-03
 44         1.6279978535e-01
 45         5.6920447731e-02
 46         1.0269202251e-02
 47         0.0000000000e+00
 48        -2.9983836269e-03
 Sym= B1
 Ene=        -2.2734509102e-01
 Spin= Alpha
 Occup=         1.0000000000e+00
  1         0.0000000000e+00
  2         0.0000000000e+00
  3         0.0000000000e+00
  4         5.9251582896e-01
  5         0.0000000000e+00
  6         0.0000000000e+00
  7         5.1325414276e-01
  8         0.0000000000e+00
  9         0.0000000000e+00
 10         0.0000000000e+00
 11         2.2469157523e-03
 12         0.0000000000e+00
 13         0.0000000000e+00
 14         0.0000000000e+00
 15         0.0000000000e+00
 16         0.0000000000e+00
 17         1.9431738582e-02
 18         0.0000000000e+00
 19         0.0000000000e+00
 20         0.0000000000e+00
 21         0.0000000000e+00
 22         1.9431738582e-02
 23         0.0000000000e+00
 24         0.0000000000e+00
 25         0.0000000000e+00
 26         0.0000000000e+00
 27         0.0000000000e+00
 28        -1.0650601912e-01
 29         0.0000000000e+00
 30         0.0000000000e+00
 31        -6.6485565140e-02
 32         0.0000000000e+00
 33         0.0000000000e+00
 34         0.0000000000e+00
 35         3.4273835854e-02
 36         0.0000000000e+00
 37         0.0000000000e+00
 38         0.0000000000e+00
 39        -1.7400895534e-01
 40        -1.3195919244e-01
 41         1.7462189393e-03
 42         0.0000000000e+00
 43         3.8360918880e-04
 44         1.7400895534e-01
 45         1.3195919244e-01
 46         1.7462189393e-03
 47         0.0000000000e+00
 48        -3.8360918880e-04
 Sym= B2
 Ene=        -2.2734509101e-01
 Spin= Alpha
 Occup=         1.0000000000e+00
  1         0.0000000000e+00
  2         0.0000000000e+00
  3         0.0000000000e+00
  4         0.0000000000e+00
  5         1.0650601911e-01
  6         0.0000000000e+00
  7         0.0000000000e+00
  8         6.6485565136e-02
  9         0.0000000000e+00
 10         0.0000000000e+00
 11         0.0000000000e+00
 12         3.4273835854e-02
 13         0.0000000000e+00
 14         0.0000000000e+00
 15         1.7400895534e-01
 16         1.3195919244e-01
 17         0.0000000000e+00
 18        -1.7462189393e-03
 19         3.8360918900e-04
 20        -1.7400895534e-01
 21        -1.3195919244e-01
 22         0.0000000000e+00
 23        -1.7462189393e-03
 24        -3.8360918900e-04
 25         0.0000000000e+00
 26         0.0000000000e+00
 27         0.0000000000e+00
 28         0.0000000000e+00
 29        -5.9251582896e-01
 30         0.0000000000e+00
 31         0.0000000000e+00
 32        -5.1325414276e-01
 33         0.0000000000e+00
 34         0.0000000000e+00
 35         0.0000000000e+00
 36         2.2469157518e-03
 37         0.0000000000e+00
 38         0.0000000000e+00
 39         0.0000000000e+00
 40         0.0000000000e+00
 41         0.0000000000e+00
 42        -1.9431738582e-02
 43         0.0000000000e+00
 44         0.0000000000e+00
 45         0.0000000000e+00
 46         0.0000000000e+00
 47        -1.9431738582e-02
 48         0.0000000000e+00
 Sym= A1
 Ene=         9.7767326337e-02
 Spin= Alpha
 Occup=         0.0000000000e+00
  1         1.1570317950e-01
  2        -2.0350006012e-01
  3        -1.9858099538e+00
  4         0.0000000000e+00
  5         0.0000000000e+00
  6        -4.8965731651e-02
  7         0.0000000000e+00
  8         0.0000000000e+00
  9        -8.5219029887e-02
 10         1.0254852892e-02
 11         0.0000000000e+00
 12         0.0000000000e+00
 13        -1.7478009705e-02
 14         0.0000000000e+00
 15         9.1149452497e-02
 16         1.0301187095e+00
 17         0.0000000000e+00
 18         7.3496832496e-03
 19         3.5105306429e-03
 20         9.1149452497e-02
 21         1.0301187095e+00
 22         0.0000000000e+00
 23        -7.3496832496e-03
 24         3.5105306429e-03
 25        -1.1570317956e-01
 26         2.0350006024e-01
 27         1.9858099548e+00
 28         0.0000000000e+00
 29         0.0000000000e+00
 30        -4.8965731760e-02
 31         0.0000000000e+00
 32         0.0000000000e+00
 33        -8.5219030255e-02
 34        -1.0254852889e-02
 35         0.0000000000e+00
 36         0.0000000000e+00
 37        -1.7478009706e-02
 38         0.0000000000e+00
 39        -9.1149452518e-02
 40        -1.0301187103e+00
 41        -7.3496832521e-03
 42         0.0000000000e+00
 43         3.5105306419e-03
 44        -9.1149452518e-02
 45        -1.0301187103e+00
 46         7.3496832521e-03
 47         0.0000000000e+00
 48         3.5105306419e-03
 Sym= A1
 Ene=         1.0406293153e-01
 Spin= Alpha
 Occup=         0.0000000000e+00
  1         9.3412566018e-02
  2        -2.2495233598e-01
  3        -1.4222345386e+00
  4         0.0000000000e+00
  5         0.0000000000e+00
  6        -1.6253550256e-01
  7         0.0000000000e+00
  8         0.0000000000e+00
  9        -5.1100602808e-01
 10        -5.4301723779e-03
 11         0.0000000000e+00
 12         0.0000000000e+00
 13        -2.6206414568e-03
 14         0.0000000000e+00
 15         2.7185236071e-02
 16         1.0746313861e+00
 17         0.0000000000e+00
 18         6.3297280742e-03
 19        -9.3032667935e-04
 20         2.7185236071e-02
 21         1.0746313861e+00
 22         0.0000000000e+00
 23        -6.3297280742e-03
 24        -9.3032667935e-04
 25         9.3412565936e-02
 26        -2.2495233580e-01
 27        -1.4222345377e+00
 28         0.0000000000e+00
 29         0.0000000000e+00
 30         1.6253550251e-01
 31         0.0000000000e+00
 32         0.0000000000e+00
 33         5.1100602781e-01
 34        -5.4301723866e-03
 35         0.0000000000e+00
 36         0.0000000000e+00
 37         2.6206414432e-03
 38         0.0000000000e+00
 39         2.7185236009e-02
 40         1.0746313854e+00
 41         6.3297280690e-03
 42         0.0000000000e+00
 43         9.3032668473e-04
 44         2.7185236009e-02
 45         1.0746313854e+00
 46        -6.3297280690e-03
 47         0.0000000000e+00
 48         9.3032668473e-04
 Sym= B2
 Ene=         1.5348095544e-01
 Spin= Alpha
 Occup=         0.0000000000e+00
  1         0.0000000000e+00
  2         0.0000000000e+00
  3         0.0000000000e+00
  4         0.0000000000e+00
  5         3.9014146927e-01
  6         0.0000000000e+00
  7         0.0000000000e+00
  8         1.3786080866e+00
  9         0.0000000000e+00
 10         0.0000000000e+00
 11         0.0000000000e+00
 12        -7.1217854257e-03
 13         0.0000000000e+00
 14         0.0000000000e+00
 15        -4.1468212964e-02
 16        -1.7267059357e+00
 17         0.0000000000e+00
 18        -3.0281998486e-03
 19        -3.2512008135e-03
 20         4.1468212964e-02
 21         1.7267059357e+00
 22         0.0000000000e+00
 23        -3.0281998486e-03
 24         3.2512008135e-03
 25         0.0000000000e+00
 26         0.0000000000e+00
 27         0.0000000000e+00
 28         0.0000000000e+00
 29        -1.0378424906e-02
 30         0.0000000000e+00
 31         0.0000000000e+00
 32        -3.6576373620e-01
 33         0.0000000000e+00
 34         0.0000000000e+00
 35         0.0000000000e+00
 36         2.1564832490e-02
 37         0.0000000000e+00
 38         0.0000000000e+00
 39         0.0000000000e+00
 40         0.0000000000e+00
 41         0.0000000000e+00
 42        -3.1117987181e-03
 43         0.0000000000e+00
 44         0.0000000000e+00
 45         0.0000000000e+00
 46         0.0000000000e+00
 47        -3.1117987181e-03
 48         0.0000000000e+00
 Sym= B1
 Ene=         1.5348095544e-01
 Spin= Alpha
 Occup=         0.0000000000e+00
  1         0.0000000000e+00
  2         0.0000000000e+00
  3         0.0000000000e+00
  4         1.0378424903e-02
  5         0.0000000000e+00
  6         0.0000000000e+00
  7         3.6576373620e-01
  8         0.0000000000e+00
  9         0.0000000000e+00
 10         0.0000000000e+00
 11         2.1564832491e-02
 12         0.0000000000e+00
 13         0.0000000000e+00
 14         0.0000000000e+00
 15         0.0000000000e+00
 16         0.0000000000e+00
 17         3.1117987181e-03
 18         0.0000000000e+00
 19         0.0000000000e+00
 20         0.0000000000e+00
 21         0.0000000000e+00
 22         3.1117987181e-03
 23         0.0000000000e+00
 24         0.0000000000e+00
 25         0.0000000000e+00
 26         0.0000000000e+00
 27         0.0000000000e+00
 28        -3.9014146926e-01
 29         0.0000000000e+00
 30         0.0000000000e+00
 31        -1.3786080866e+00
 32         0.0000000000e+00
 33         0.0000000000e+00
 34         0.0000000000e+00
 35        -7.1217854255e-03
 36         0.0000000000e+00
 37         0.0000000000e+00
 38         0.0000000000e+00
 39         4.1468212963e-02
 40         1.7267059357e+00
 41         3.0281998483e-03
 42         0.0000000000e+00
 43        -3.2512008131e-03
 44        -4.1468212963e-02
 45        -1.7267059357e+00
 46         3.0281998483e-03
 47         0.0000000000e+00
 48         3.2512008131e-03
 Sym= A1
 Ene=         2.7844423475e-01
 Spin= Alpha
 Occup=         0.0000000000e+00
  1         8.8252807948e-02
  2        -2.0305132116e-01
  3        -2.8460414307e+00
  4         0.0000000000e+00
  5         0.0000000000e+00
  6         3.0281296457e-01
  7         0.0000000000e+00
  8         0.0000000000e+00
  9         2.4976685340e+00
 10         3.7318358953e-02
 11         0.0000000000e+00
 12         0.0000000000e+00
 13         8.1353462538e-03
 14         0.0000000000e+00
 15        -6.1568339214e-02
 16        -3.4043741074e-01
 17         0.0000000000e+00
 18        -1.1900054550e-02
 19         2.0089590742e-02
 20        -6.1568339214e-02
 21        -3.4043741074e-01
 22         0.0000000000e+00
 23         1.1900054550e-02
 24         2.0089590742e-02
 25        -8.8252807936e-02
 26         2.0305132109e-01
 27         2.8460414307e+00
 28         0.0000000000e+00
 29         0.0000000000e+00
 30         3.0281296458e-01
 31         0.0000000000e+00
 32         0.0000000000e+00
 33         2.4976685340e+00
 34        -3.7318358954e-02
 35         0.0000000000e+00
 36         0.0000000000e+00
 37         8.1353462547e-03
 38         0.0000000000e+00
 39         6.1568339206e-02
 40         3.4043741075e-01
 41         1.1900054553e-02
 42         0.0000000000e+00
 43         2.0089590741e-02
 44         6.1568339206e-02
 45         3.4043741075e-01
 46        -1.1900054553e-02
 47         0.0000000000e+00
 48         2.0089590741e-02
 Sym= A1
 Ene=         4.2596001498e-01
 Spin= Alpha
 Occup=         0.0000000000e+00
  1         9.8018955392e-02
  2        -8.3425804788e-01
  3         8.9545975182e-01
  4         0.0000000000e+00
  5         0.0000000000e+00
  6         4.2398336173e-01
  7         0.0000000000e+00
  8         0.0000000000e+00
  9        -5.8866338929e-01
 10        -6.9508245332e-02
 11         0.0000000000e+00
 12         0.0000000000e+00
 13         1.7745715508e-02
 14         0.0000000000e+00
 15        -3.2132173783e-02
 16        -2.3464160316e-01
 17         0.0000000000e+00
 18         1.6785545434e-04
 19        -4.2180214510e-02
 20        -3.2132173783e-02
 21        -2.3464160316e-01
 22         0.0000000000e+00
 23        -1.6785545434e-04
 24        -4.2180214510e-02
 25         9.8018955403e-02
 26        -8.3425804795e-01
 27         8.9545975198e-01
 28         0.0000000000e+00
 29         0.0000000000e+00
 30        -4.2398336172e-01
 31         0.0000000000e+00
 32         0.0000000000e+00
 33         5.8866338927e-01
 34        -6.9508245328e-02
 35         0.0000000000e+00
 36         0.0000000000e+00
 37        -1.7745715509e-02
 38         0.0000000000e+00
 39        -3.2132173799e-02
 40        -2.3464160319e-01
 41         1.6785545426e-04
 42         0.0000000000e+00
 43         4.2180214506e-02
 44        -3.2132173799e-02
 45        -2.3464160319e-01
 46        -1.6785545426e-04
 47         0.0000000000e+00
 48         4.2180214506e-02
 Sym= A1
 Ene=         4.8296521988e-01
 Spin= Alpha
 Occup=         0.0000000000e+00
  1         2.3441271923e-02
  2        -3.4718534398e-01
  3         1.3767633814e+00
  4         0.0000000000e+00
  5         0.0000000000e+00
  6        -7.4728608256e-02
  7         0.0000000000e+00
  8         0.0000000000e+00
  9         7.5180170267e-01
 10         1.4299267996e-02
 11         0.0000000000e+00
 12         0.0000000000e+00
 13         7.5861369218e-02
 14         0.0000000000e+00
 15        -5.7687917648e-01
 16        -2.6059649476e-01
 17         0.0000000000e+00
 18        -3.8843473848e-02
 19         1.9555453372e-02
 20        -5.7687917648e-01
 21        -2.6059649476e-01
 22         0.0000000000e+00
 23         3.8843473848e-02
 24         1.9555453372e-02
 25         2.3441271943e-02
 26        -3.4718534415e-01
 27         1.3767633820e+00
 28         0.0000000000e+00
 29         0.0000000000e+00
 30         7.4728608281e-02
 31         0.0000000000e+00
 32         0.0000000000e+00
 33        -7.5180170264e-01
 34         1.4299267998e-02
 35         0.0000000000e+00
 36         0.0000000000e+00
 37        -7.5861369225e-02
 38         0.0000000000e+00
 39        -5.7687917654e-01
 40        -2.6059649483e-01
 41        -3.8843473847e-02
 42         0.0000000000e+00
 43        -1.9555453378e-02
 44        -5.7687917654e-01
 45        -2.6059649483e-01
 46         3.8843473847e-02
 47         0.0000000000e+00
 48        -1.9555453378e-02
 Sym= B1
 Ene=         5.0293464642e-01
 Spin= Alpha
 Occup=         0.0000000000e+00
  1         0.0000000000e+00
  2         0.0000000000e+00
  3         0.0000000000e+00
  4         9.6284343530e-01
  5         0.0000000000e+00
  6         0.0000000000e+00
  7        -9.6708095384e-01
  8         0.0000000000e+00
  9         0.0000000000e+00
 10         0.0000000000e+00
 11         1.0713833511e-02
 12         0.0000000000e+00
 13         0.0000000000e+00
 14         0.0000000000e+00
 15         0.0000000000e+00
 16         0.0000000000e+00
 17         2.9251961154e-02
 18         0.0000000000e+00
 19         0.0000000000e+00
 20         0.0000000000e+00
 21         0.0000000000e+00
 22         2.9251961154e-02
 23         0.0000000000e+00
 24         0.0000000000e+00
 25         0.0000000000e+00
 26         0.0000000000e+00
 27         0.0000000000e+00
 28        -6.0327525917e-02
 29         0.0000000000e+00
 30         0.0000000000e+00
 31        -1.4758861946e-01
 32         0.0000000000e+00
 33         0.0000000000e+00
 34         0.0000000000e+00
 35        -2.1914729601e-02
 36         0.0000000000e+00
 37         0.0000000000e+00
 38         0.0000000000e+00
 39         2.8909504440e-01
 40         1.9949106921e-02
 41        -4.0439801192e-03
 42         0.0000000000e+00
 43        -5.3809229479e-02
 44        -2.8909504440e-01
 45        -1.9949106921e-02
 46        -4.0439801192e-03
 47         0.0000000000e+00
 48         5.3809229479e-02
 Sym= B2
 Ene=         5.0293464642e-01
 Spin= Alpha
 Occup=         0.0000000000e+00
  1         0.0000000000e+00
  2         0.0000000000e+00
  3         0.0000000000e+00
  4         0.0000000000e+00
  5         6.0327525917e-02
  6         0.0000000000e+00
  7         0.0000000000e+00
  8         1.4758861947e-01
  9         0.0000000000e+00
 10         0.0000000000e+00
 11         0.0000000000e+00
 12        -2.1914729603e-02
 13         0.0000000000e+00
 14         0.0000000000e+00
 15        -2.8909504442e-01
 16        -1.9949106915e-02
 17         0.0000000000e+00
 18         4.0439801193e-03
 19        -5.3809229480e-02
 20         2.8909504442e-01
 21         1.9949106915e-02
 22         0.0000000000e+00
 23         4.0439801193e-03
 24         5.3809229480e-02
 25         0.0000000000e+00
 26         0.0000000000e+00
 27         0.0000000000e+00
 28         0.0000000000e+00
 29        -9.6284343530e-01
 30         0.0000000000e+00
 31         0.0000000000e+00
 32         9.6708095383e-01
 33         0.0000000000e+00
 34         0.0000000000e+00
 35         0.0000000000e+00
 36         1.0713833513e-02
 37         0.0000000000e+00
 38         0.0000000000e+00
 39         0.0000000000e+00
 40         0.0000000000e+00
 41         0.0000000000e+00
 42        -2.9251961155e-02
 43         0.0000000000e+00
 44         0.0000000000e+00
 45         0.0000000000e+00
 46         0.0000000000e+00
 47        -2.9251961155e-02
 48         0.0000000000e+00
 Sym= A1
 Ene=         5.0653532160e-01
 Spin= Alpha
 Occup=         0.0000000000e+00
  1         9.3044776331e-03
  2        -4.6621520994e-01
  3         2.0760164966e+00
  4         0.0000000000e+00
  5         0.0000000000e+00
  6        -3.0921465841e-01
  7         0.0000000000e+00
  8         0.0000000000e+00
  9         1.3320498688e-01
 10        -2.8500613938e-02
 11         0.0000000000e+00
 12         0.0000000000e+00
 13         8.8392585912e-02
 14         0.0000000000e+00
 15        -5.3129309190e-01
 16        -1.2585564966e-01
 17         0.0000000000e+00
 18        -1.4274538571e-02
 19         1.1637102523e-02