[Molden Format]
[Title]
generated by TRESC, real part2 of MOs of job Ni0-C2H4
 
[Atoms] AU
Ni   1  28    2.0327243480    6.6651129323   -0.4637853482
 C   2   6    4.4866582262    4.9116344944    1.3008835560
 C   3   6    4.8771137450    4.8741236186   -1.3947805326
 H   4   1    5.7310700770    6.0706468704    2.4997637439
 H   5   1    3.8369470533    3.1858198160    2.2645095603
 H   6   1    4.5308414173    3.1179949920   -2.4558991994
 H   7   1    6.4130479072    6.0088908466   -2.2212746715
[GTO]
  1 0
 s  6 1.0
   105040.0623800000        0.0035171970
    13968.3586480000        0.0173391066
     2940.9041687000        0.0741624358
      786.1020253800        0.2530654570
      245.2580996100        0.5385985895
       81.4764798070        0.4440458912
 s  3 1.0
      156.2637962600       -0.1055600427
       18.1782549770        0.6426665159
        7.4444231636        0.4714885202
 s  3 1.0
       12.9345647400       -0.2291772139
        2.1221056648        0.7395224896
        0.8740880520        0.4584156000
 s  1 1.0
        0.1104545011        1.0000000000
 s  1 1.0
        0.0401880342        1.0000000000
 p  6 1.0
     2356.4518106000       -0.0000855328
      513.4513882300       -0.0005420978
      158.2013335400       -0.0024494945
       57.5500069520       -0.0071523316
       22.5659922940       -0.0118148309
        9.0452780395       -0.0071547652
 p  5 1.0
     1045.8514156000        0.0092908253
      234.8058471900        0.0670834485
       72.4328268820        0.2652923948
       25.6138643320        0.5353100645
        9.4079524620        0.3595935862
 p  1 1.0
        6.9922696496        1.0000000000
 p  3 1.0
        4.8001460600        0.3535617403
        1.8423116558        0.5937621194
        0.6865826193        0.2491809881
 p  1 1.0
        0.1465880000        1.0000000000
 d  4 1.0
       47.9675640250        0.0288745010
       13.3221273820        0.1553500110
        4.4560102246        0.3821354899
        1.4827299619        0.4857955113
 d  1 1.0
        0.4362198809        1.0000000000
 d  1 1.0
        0.1200000000        1.0000000000
 f  1 1.0
        2.1740000000        1.0000000000
 
  2 0
 s  5 1.0
     1231.7975026000        0.0058423196
      185.5974766200        0.0415113222
       42.0875016200        0.1832849990
       11.6300369400        0.4683526005
        3.5840894779        0.4430601820
 s  1 1.0
        0.4029351893        1.0000000000
 s  1 1.0
        0.1309419451        1.0000000000
 p  3 1.0
        9.4821246358        0.0381720490
        2.0121097169        0.2099973699
        0.5481253660        0.5104097902
 p  1 1.0
        0.1527756940        1.0000000000
 d  1 1.0
        0.8000000000        1.0000000000
 
  3 0
 s  5 1.0
     1231.7975026000        0.0058423196
      185.5974766200        0.0415113222
       42.0875016200        0.1832849990
       11.6300369400        0.4683526005
        3.5840894779        0.4430601820
 s  1 1.0
        0.4029351893        1.0000000000
 s  1 1.0
        0.1309419451        1.0000000000
 p  3 1.0
        9.4821246358        0.0381720490
        2.0121097169        0.2099973699
        0.5481253660        0.5104097902
 p  1 1.0
        0.1527756940        1.0000000000
 d  1 1.0
        0.8000000000        1.0000000000
 
  4 0
 s  3 1.0
       13.0107010000        0.0196821580
        1.9622572000        0.1379652400
        0.4445379600        0.4783193500
 s  1 1.0
        0.1219496200        1.0000000000
 p  1 1.0
        0.8000000000        1.0000000000
 
  5 0
 s  3 1.0
       13.0107010000        0.0196821580
        1.9622572000        0.1379652400
        0.4445379600        0.4783193500
 s  1 1.0
        0.1219496200        1.0000000000
 p  1 1.0
        0.8000000000        1.0000000000
 
  6 0
 s  3 1.0
       13.0107010000        0.0196821580
        1.9622572000        0.1379652400
        0.4445379600        0.4783193500
 s  1 1.0
        0.1219496200        1.0000000000
 p  1 1.0
        0.8000000000        1.0000000000
 
  7 0
 s  3 1.0
       13.0107010000        0.0196821580
        1.9622572000        0.1379652400
        0.4445379600        0.4783193500
 s  1 1.0
        0.1219496200        1.0000000000
 p  1 1.0
        0.8000000000        1.0000000000
 
[5D]
[7F]
[9G]
[MO]
 Ene=   0.69823811633458E+00
 Spin= Alpha
 Occup=    0.000000
   1      0.000055744270
   2     -0.000145895052
   3      0.000913469595
   4     -0.009921208362
   5      0.000190018590
   6      0.000001216101
   7     -0.000001056668
   8     -0.000000870549
   9     -0.000112639000
  10      0.000087281789
  11      0.000013034649
  12     -0.000010049828
  13      0.000008544306
  14      0.000007645030
  15      0.000387242807
  16     -0.000301798989
  17     -0.000045459614
  18     -0.007084398600
  19      0.003938008753
  20      0.000662284574
  21      0.000539056037
  22      0.002066836655
  23      0.003560638492
  24     -0.000269542254
  25     -0.000284210404
  26      0.002148017084
  27      0.009000771730
  28      0.013759621322
  29     -0.001836857354
  30     -0.001875507842
  31     -0.001182898177
  32     -0.005542117152
  33     -0.009352344710
  34     -0.000160840698
  35      0.003467673343
  36      0.000003694229
  37      0.000036392971
  38      0.000008630273
  39      0.000120186873
  40      0.000048180891
  41     -0.000032181466
  42     -0.000005225547
  43      0.000678918414
  44     -0.005388511388
  45      0.016534938357
  46      0.188092233688
  47      0.294297273887
  48      0.022918773276
  49     -0.305500232965
  50     -0.468710153573
  51     -0.036997300399
  52     -0.003533556557
  53     -0.017188041526
  54     -0.023419337376
  55     -0.018934895996
  56     -0.005918944849
  57     -0.000230522678
  58     -0.000573455054
  59      0.006836694445
  60     -0.191083354756
  61     -0.294031208435
  62     -0.024070053820
  63      0.302286883362
  64      0.473675744829
  65      0.037792160732
  66     -0.002683169119
  67     -0.010878743445
  68     -0.020517986744
  69      0.023853129998
  70      0.012114023348
  71     -0.176406583416
  72      0.424599134278
  73     -0.023896741701
  74     -0.013524862835
  75     -0.038704946865
  76      0.177180051747
  77     -0.434628015825
  78     -0.006109023863
  79     -0.031844799933
  80      0.035127211785
  81     -0.179777677686
  82      0.431835898595
  83     -0.004393876384
  84      0.033063468925
  85      0.034519670953
  86      0.173253164100
  87     -0.430377753362
  88      0.033987061802
  89      0.012847377468
  90     -0.030597383172
 Ene=   0.72465312810647E+00
 Spin= Alpha
 Occup=    0.000000
   1      0.000010080985
   2     -0.000030492008
   3      0.000149356901
   4      0.000934210474
   5     -0.000023053481
   6      0.000001773212
   7     -0.000000907135
   8     -0.000004201763
   9     -0.000075680795
  10      0.000034674986
  11      0.000203233081
  12      0.000137023701
  13     -0.000001880358
  14     -0.000950275406
  15      0.000084211681
  16     -0.000109036737
  17      0.000530920118
  18     -0.001917360642
  19     -0.000520996283
  20      0.009338135267
  21      0.000313339418
  22      0.000869335336
  23     -0.000572241341
  24     -0.000198606643
  25      0.000260897706
  26     -0.000176948206
  27     -0.000162051781
  28      0.000181691865
  29     -0.000033917039
  30     -0.000337053764
  31      0.001810615285
  32      0.004133441219
  33     -0.003024055469
  34     -0.001377859984
  35      0.001120319710
  36      0.000003477180
  37     -0.000012896802
  38      0.000012268126
  39     -0.000015023628
  40      0.000037900331
  41      0.000000267307
  42     -0.000020884853
  43     -0.000989519372
  44      0.010793442242
  45     -0.011383869183
  46     -0.007429801519
  47      0.000480591171
  48      0.029227590581
  49      0.011220417847
  50     -0.000726591222
  51     -0.044671545302
  52      0.001909383629
  53     -0.000629390003
  54      0.000211514342
  55      0.000565801250
  56     -0.000944813653
  57      0.000797869264
  58     -0.008729054073
  59      0.008719357117
  60     -0.005392892378
  61     -0.001973135659
  62      0.029843682736
  63      0.006792587233
  64      0.003745345121
  65     -0.044866612671
  66     -0.002064187582
  67     -0.000128006273
  68      0.000260793826
  69     -0.000220421088
  70      0.001057824699
  71     -0.005840292487
  72      0.021025475072
  73     -0.001262882769
  74     -0.001245867774
  75      0.000107603458
  76     -0.005540399943
  77      0.024243846437
  78      0.000624827109
  79      0.002039486212
  80      0.000358058686
  81      0.007003669900
  82     -0.019978340431
  83     -0.000690160118
  84     -0.001596240431
  85      0.000246568146
  86      0.007741615044
  87     -0.025372495203
  88      0.001711051148
  89      0.001470385050
  90      0.000378528034
 Ene=   0.72465312810648E+00
 Spin= Alpha
 Occup=    0.000000
   1     -0.006818948387
   2      0.019403167889
   3     -0.105733247969
   4      0.180376315514
   5      0.016083682172
   6     -0.000489525774
   7      0.000315170764
   8     -0.000075570191
   9      0.022527328271
  10     -0.015109983810
  11      0.003482286821
  12      0.002453648466
  13     -0.001763385034
  14      0.000301178539
  15     -0.078209914350
  16      0.054417613883
  17     -0.011994459364
  18      0.261739701710
  19     -0.399022909036
  20      0.044024998765
  21     -0.027512843997
  22      0.011688388674
  23     -0.010003942610
  24      0.026924593201
  25     -0.067868067132
  26      0.035120306625
  27     -0.019764506425
  28      0.009460258998
  29     -0.066333583648
  30      0.065201346551
  31     -0.195698182537
  32      0.065058093735
  33     -0.065741257544
  34      0.060964551597
  35     -0.416874376689
  36      0.000468066096
  37      0.001191086238
  38     -0.000935883331
  39     -0.000149126089
  40      0.001073541359
  41      0.000984022514
  42      0.004491973365
  43      0.012824143324
  44     -0.147765197050
  45     -0.262570473308
  46      0.134528285437
  47     -0.634288537111
  48      0.108428874313
  49      0.186835021273
  50      0.672959262231
  51      0.051944872934
  52     -0.010614691967
  53      0.002146841917
  54      0.041922586934
  55      0.035222756543
  56     -0.008378618186
  57      0.012627672667
  58     -0.146815327216
  59     -0.264670386157
  60      0.163158084927
  61     -0.636862199944
  62     -0.051585412230
  63      0.186822146065
  64      0.671186864700
  65     -0.008052414883
  66     -0.005529235206
  67      0.012688906437
  68     -0.042078027769
  69      0.035069157663
  70      0.004007739663
  71     -0.198154626404
  72     -0.291781046462
  73      0.038856836915
  74      0.011270044411
  75      0.006206471313
  76     -0.240607109190
  77      0.616459655909
  78      0.008624583759
  79      0.064691291465
  80     -0.015509717927
  81     -0.244238181395
  82      0.620249408547
  83      0.003856760721
  84      0.065507068095
  85      0.015374025866
  86     -0.199813978250
  87     -0.285091627922
  88      0.038821542384
  89      0.010956750739
  90      0.004978171960
 Ene=   0.72502019396083E+00
 Spin= Alpha
 Occup=    0.000000
   1      0.000029483526
   2     -0.000084091406
   3      0.000456394541
   4     -0.000659439335
   5     -0.000082136961
   6      0.000002547512
   7     -0.000001321047
   8     -0.000001846595
   9     -0.000104814537
  10      0.000068796041
  11      0.000037176651
  12     -0.000131047490
  13      0.000042512009
  14      0.000918140744
  15      0.000506112047
  16     -0.000311260788
  17     -0.001314073789
  18      0.000564467787
  19      0.004087905476
  20     -0.000483660788
  21      0.000069974645
  22     -0.000226123155
  23      0.000154954372
  24     -0.000072851528
  25      0.000287795277
  26     -0.000114426741
  27      0.000277440252
  28     -0.000163127955
  29      0.000801661048
  30     -0.000044926842
  31      0.000863640810
  32     -0.000163245157
  33      0.000539966671
  34      0.001200422650
  35      0.002405691686
  36      0.000002369805
  37     -0.000005891585
  38      0.000006946887
  39     -0.000001634022
  40     -0.000002903900
  41     -0.000006138075
  42     -0.000019920450
  43      0.000626173135
  44     -0.004721601309
  45      0.014269031216
  46      0.003698241189
  47      0.008218853222
  48     -0.006514752989
  49     -0.005931312266
  50     -0.011753210763
  51      0.006943126373
  52     -0.000401975745
  53     -0.000153226360
  54     -0.000620176075
  55     -0.000664967087
  56      0.000187815130
  57     -0.000745868843
  58      0.006105149492
  59     -0.012259160350
  60      0.004321452965
  61      0.008509449176
  62     -0.005714786817
  63     -0.008938469487
  64     -0.010855044598
  65      0.006775595511
  66      0.000505233352
  67      0.000143663635
  68      0.000500366117
  69     -0.000556383304
  70     -0.000537817679
  71      0.002594664031
  72      0.000256212929
  73     -0.000416432723
  74      0.000043859308
  75     -0.000129281139
  76      0.003011769147
  77     -0.016697366689
  78     -0.000254238787
  79     -0.001623443566
  80      0.000159183078
  81     -0.000228641076
  82     -0.002438182290
  83      0.000191394108
  84     -0.000553915675
  85     -0.000174682454
  86     -0.001437058562
  87      0.016106481084
  88     -0.001399287201
  89     -0.000787581815
  90     -0.000009864523
 Ene=   0.72502019396084E+00
 Spin= Alpha
 Occup=    0.000000
   1     -0.001568705382
   2      0.004492993078
   3     -0.024209963555
   4      0.023165797723
   5      0.004417936974
   6     -0.000125305034
   7      0.000067657170
   8     -0.000017614516
   9      0.005199546096
  10     -0.003828027779
  11      0.000779222910
  12     -0.000999597044
  13     -0.002816477567
  14     -0.000018075232
  15     -0.014833173223
  16      0.018640094027
  17     -0.002426523210
  18     -0.096763947597
  19     -0.314586418432
  20     -0.008783711780
  21     -0.006673051908
  22      0.002368074808
  23     -0.002568301510
  24      0.004636421730
  25     -0.017252677838
  26      0.008148221001
  27     -0.011426435413
  28     -0.001475783405
  29     -0.065611317525
  30     -0.004358503935
  31     -0.050860415910
  32     -0.003419037831
  33     -0.026750755690
  34     -0.123046612292
  35     -0.156499400101
  36      0.000078651270
  37      0.000192840308
  38     -0.000442715332
  39      0.000047576419
  40      0.000306408697
  41      0.000433510039
  42      0.001071035232
  43      0.003957712880
  44     -0.044662052981
  45     -0.041944809006
  46     -0.317957637882
  47     -0.686327737758
  48     -0.020723165120
  49      0.562851341820
  50      0.959795200738
  51      0.084741184978
  52      0.003086311984
  53      0.030453065682
  54      0.051504270057
  55      0.046265305197
  56      0.010603285047
  57      0.003712477755
  58     -0.043144364751
  59     -0.034477500521
  60     -0.308086928029
  61     -0.685541607047
  62     -0.058163421356
  63      0.555371478119
  64      0.958653122566
  65      0.066078369335
  66     -0.005674401426
  67     -0.014992369712
  68     -0.045119443058
  69      0.054349536688
  70      0.023971951488
  71     -0.021452709928
  72     -0.725733235064
  73      0.076534856148
  74      0.033444515332
  75      0.022374285936
  76     -0.089947245743
  77      0.790366568829
  78      0.004278043489
  79      0.090966138408
  80     -0.016211341964
  81     -0.091987401317
  82      0.792561119382
  83     -0.000463233016
  84      0.091539142721
  85      0.013847188613
  86     -0.024566247010
  87     -0.716241662567
  88      0.079298351332
  89      0.032755320149
  90     -0.000379475270
 Ene=   0.73660886070344E+00
 Spin= Alpha
 Occup=    0.000000
   1     -0.002183475039
   2      0.005653480183
   3     -0.036031498268
   4      0.400956663759
   5      0.007083962575
   6     -0.000019355031
   7      0.000017163132
   8     -0.000055391868
   9      0.003461845420
  10     -0.002482447412
  11      0.002620506162
  12      0.000522432757
  13     -0.000180935475
  14     -0.000416439333
  15     -0.012290528375
  16      0.008564431653
  17     -0.008376270364
  18      0.242426792863
  19     -0.167281781727
  20      0.108474489258
  21     -0.002183329113
  22      0.007525353930
  23     -0.005045622261
  24      0.001547285317
  25     -0.005037225715
  26     -0.005895025381
  27      0.001174694877
  28     -0.000618867665
  29      0.003433035469
  30     -0.007830757350
  31      0.029638565796
  32      0.033400235107
  33     -0.030436605511
  34      0.020678926160
  35     -0.055054403164
  36     -0.000076104093
  37     -0.000479575111
  38      0.000359902394
  39     -0.000057109353
  40      0.000226834500
  41     -0.000029170652
  42     -0.000281336244
  43     -0.014319232400
  44      0.184743628407
  45     -0.495838473194
  46     -0.008216796450
  47     -0.007364389828
  48      0.190378092353
  49      0.154990896838
  50     -0.082386789388
  51     -0.301737921740
  52      0.014004463900
  53      0.003097836252
  54     -0.004524802695
  55      0.001272220844
  56     -0.004110921082
  57     -0.012772094466
  58      0.125468407543
  59     -0.547654840265
  60      0.018675848385
  61     -0.026893612520
  62      0.174074964286
  63      0.086628392760
  64     -0.036157959922
  65     -0.234222121588
  66     -0.015134203494
  67     -0.007617163557
  68      0.007426654399
  69     -0.001255337643
  70      0.004456768936
  71      0.051152605172
  72      0.205784067833
  73     -0.005792227399
  74     -0.011343555392
  75      0.002689996759
  76      0.051190268228
  77      0.200736981651
  78      0.007752940416
  79      0.008930731970
  80      0.004651307955
  81      0.111910865240
  82     -0.016341903125
  83      0.001275975254
  84     -0.010610326131
  85      0.001679781283
  86      0.112512328487
  87     -0.017694869053
  88      0.010007866404
  89      0.002968271382
  90      0.002508328058
 Ene=   0.73660886070345E+00
 Spin= Alpha
 Occup=    0.000000
   1      0.014886814729
   2     -0.038379036508
   3      0.246308714107
   4     -2.831674636150
   5     -0.047150476434
   6      0.000133888831
   7     -0.000096208013
   8      0.000095952316
   9     -0.024110661017
  10      0.016420817971
  11     -0.006755250137
  12     -0.002195452610
  13      0.001125802829
  14     -0.000837658019
  15      0.083805622727
  16     -0.056608475152
  17      0.023931283572
  18     -1.741022996532
  19      1.176320362168
  20     -0.371100350307
  21      0.022959915456
  22     -0.017106828767
  23      0.010823577113
  24     -0.013332568200
  25      0.033630056326
  26      0.042850494549
  27     -0.015145940472
  28      0.009361969781
  29     -0.025460824344
  30      0.062690516215
  31     -0.174695828429
  32     -0.037446234649
  33      0.079440368259
  34     -0.156292439829
  35      0.380306478053
  36      0.001078726717
  37      0.003063597864
  38     -0.002143259786
  39     -0.000420203192
  40      0.000459601007
  41      0.000395162286
  42      0.002026649159
  43      0.098903266459
  44     -1.158531531306
  45      3.654642658780
  46     -0.118799846876
  47      0.103722319009
  48     -0.333067272621
  49     -0.721712906320
  50      0.438604449366
  51      0.559919900095
  52     -0.033305066953
  53     -0.052298190891
  54      0.038094598711
  55      0.006215559922
  56     -0.003747856769
  57      0.096424198918
  58     -1.074038724536
  59      3.715670260617
  60     -0.166460303754
  61      0.143067616210
  62     -0.206985342307
  63     -0.577518397576
  64      0.344815442944
  65      0.017241257129
  66      0.032929979196
  67      0.059828903471
  68     -0.042683231214
  69     -0.003976688006
  70     -0.004658493887
  71     -0.558694012444
  72     -0.802422352884
  73     -0.006842814427
  74      0.038609734158
  75     -0.012934146470
  76     -0.555191821902
  77     -0.797828131758
  78     -0.036577909735
  79     -0.007609118703
  80     -0.017566244120
  81     -0.638227301996
  82     -0.514177988733
  83     -0.030293347370
  84      0.018262414393
  85     -0.000114839459
  86     -0.640439182976
  87     -0.482467449244
  88     -0.031173760678
  89      0.018359108422
  90      0.001737627558
 Ene=   0.73767044662219E+00
 Spin= Alpha
 Occup=    0.000000
   1      0.000439734419
   2     -0.001214587515
   3      0.006959894260
   4     -0.035925297584
   5     -0.002000042938
   6      0.000001702120
   7     -0.000012897310
   8      0.000149143771
   9     -0.000426441400
  10      0.000730661996
  11     -0.005878273652
  12     -0.000321191609
  13      0.000079973522
  14     -0.001072317262
  15      0.001810093086
  16     -0.002532689604
  17      0.021453702449
  18     -0.008151824037
  19      0.017320772237
  20     -0.193026355249
  21     -0.003199919484
  22     -0.016998477353
  23      0.011679583894
  24      0.000934796706
  25      0.001374935456
  26     -0.000027988514
  27      0.002938944670
  28     -0.002201147901
  29      0.000249183726
  30     -0.002685293824
  31     -0.019000669300
  32     -0.095600320147
  33      0.065960621098
  34      0.003094314683
  35      0.008622349154
  36     -0.000262387227
  37      0.000203804647
  38     -0.000223349184
  39      0.000398010961
  40     -0.000998837604
  41     -0.000086695314
  42      0.000013602365
  43      0.000476543578
  44     -0.070145565883
  45     -0.065133464486
  46      0.081848174299
  47     -0.023148876274
  48     -0.472723680965
  49     -0.189164638705
  50      0.075465946674
  51      0.741650787384
  52     -0.030975043450
  53      0.013513875275
  54     -0.002443964199
  55     -0.006935022560
  56      0.014970146788
  57      0.000082305186
  58      0.061680940171
  59      0.157824832418
  60      0.011816130951
  61      0.023984196324
  62     -0.476738707637
  63     -0.017695377275
  64     -0.040042013344
  65      0.767449653385
  66      0.034871927229
  67     -0.002100629808
  68     -0.005110434886
  69      0.005892178560
  70     -0.012276744337
  71      0.082718067678
  72     -0.301695799355
  73      0.021648398031
  74      0.019355098618
  75     -0.003345803364
  76      0.081584818361
  77     -0.288176146023
  78     -0.008689929866
  79     -0.025328822728
  80     -0.007486220340
  81     -0.077390227829
  82      0.276610035000
  83      0.009345072929
  84      0.026073967868
  85     -0.005653966842
  86     -0.077675067040
  87      0.264969881643
  88     -0.018177460180
  89     -0.017601974011
  90     -0.009262763153
 Ene=   0.73767044662219E+00
 Spin= Alpha
 Occup=    0.000000
   1     -0.004643645194
   2      0.012002173850
   3     -0.076715381605
   4      0.859960070354
   5      0.015362702273
   6     -0.000099436016
   7      0.000041770550
   8      0.000303893558
   9      0.009662743340
  10     -0.005508104475
  11     -0.010960250107
  12      0.001135462830
  13     -0.000608591861
  14     -0.001577146579
  15     -0.034062476907
  16      0.019309448435
  17      0.039542445732
  18      0.598031463073
  19     -0.367734197082
  20     -0.319105608103
  21     -0.018339596634
  22     -0.032405570414
  23      0.022321202282
  24      0.010061573353
  25     -0.016289270811
  26     -0.010279096269
  27      0.010185423359
  28     -0.006714113706
  29      0.006250577719
  30     -0.016515693697
  31     -0.010694673164
  32     -0.199302841445
  33      0.120380946356
  34      0.080334278248
  35     -0.147683734730
  36     -0.000896198819
  37     -0.000372654910
  38      0.000090985550
  39      0.001031505703
  40     -0.002335074892
  41     -0.000227917800
  42     -0.000076073016
  43     -0.028233013667
  44      0.188387073292
  45     -1.352748774854
  46      0.282370569134
  47     -0.104251482108
  48     -0.975137881121
  49     -0.236498837519
  50      0.024063861528
  51      1.542649767549
  52     -0.063085508009
  53      0.045567074654
  54     -0.017742195387
  55     -0.018253366556
  56      0.033980687048
  57     -0.028939599116
  58      0.471132748038
  59     -0.869413454045
  60      0.137575778835
  61     -0.008487698310
  62     -1.038113044392
  63      0.115476027744
  64     -0.212197785197
  65      1.763084012813
  66      0.069858084329
  67     -0.021030807186
  68      0.001032866161
  69      0.014028642787
  70     -0.028786380282
  71      0.350948219615
  72     -0.412346815255
  73      0.050205511541
  74      0.030756198878
  75     -0.004923266536
  76      0.348510206790
  77     -0.415550655224
  78     -0.007726563055
  79     -0.057537816999
  80     -0.011958566015
  81      0.005378097671
  82      0.807966467090
  83      0.032055214396
  84      0.053706426726
  85     -0.012485369303
  86      0.004662759832
  87      0.802658407824
  88     -0.034771715724
  89     -0.048571728291
  90     -0.021350569008
 Ene=   0.96647385677416E+00
 Spin= Alpha
 Occup=    0.000000
   1      0.000058522217
   2     -0.000142477272
   3      0.001004428557
   4     -0.005639390526
   5     -0.000694486101
   6      0.000050392570
   7     -0.000006405387
   8     -0.000339819013
   9      0.001965605242
  10     -0.000210245188
  11     -0.013881386232
  12     -0.000071543574
  13     -0.000033764391
  14      0.000129318233
  15     -0.006289971480
  16      0.000718632500
  17      0.045229144267
  18      0.135096190627
  19     -0.014198280050
  20     -0.967116517438
  21     -0.005041992443
  22     -0.009178885862
  23      0.102439950179
  24     -0.000601214655
  25     -0.015025315135
  26     -0.012108554366
  27     -0.053417748976
  28     -0.062057570306
  29      0.008763464641
  30      0.008554301213
  31     -0.061784320759
  32     -0.166186268899
  33      0.671408537095
  34      0.012558944551
  35     -0.100575079297
  36     -0.000885490619
  37     -0.001161502123
  38     -0.000867085898
  39     -0.006402349416
  40     -0.002827968956
  41      0.001243550242
  42      0.000390429696
  43      0.052790602040
  44     -0.674145218254
  45      4.467800792580
  46      0.214510751016
  47      0.156288191686
  48      0.075386614439
  49     -1.302620806317
  50     -1.337298136995
  51     -1.328616570785
  52      0.019023231351
  53      0.011843893688
  54      0.036496658047
  55      0.087178872707
  56      0.007821971586
  57     -0.052485627848
  58      0.668982467924
  59     -4.458688215820
  60     -0.226597179743
  61     -0.157530210146
  62      0.013777866319
  63      1.622612682453
  64      1.313733099701
  65     -0.934368523884
  66     -0.018846239536
  67     -0.003876610425
  68      0.028621981307
  69     -0.089195919601
  70     -0.017688412162
  71      0.408951603611
  72      0.159525355009
  73      0.029191768219
  74     -0.073650815292
  75      0.016566704482
  76     -1.190148666142
  77     -0.751302414434
  78     -0.085999010091
  79     -0.000473176912
  80     -0.014390919251
  81      1.187347944654
  82      0.752159411413
  83      0.086052394406
  84      0.001195176992
  85      0.011039908362
  86     -0.410676884500
  87     -0.158629471785
  88     -0.032938266637
  89      0.074483710460
  90      0.006057110954
 Ene=   0.96647385677417E+00
 Spin= Alpha
 Occup=    0.000000
   1      0.000018023778
   2     -0.000049667511
   3      0.000285639114
   4     -0.001862875352
   5     -0.000406116110
   6     -0.000001276964
   7     -0.000000470474
   8      0.000013703121
   9     -0.000138742508
  10      0.000047759559
  11      0.000545634308
  12     -0.000503558163
  13     -0.000034316478
  14     -0.000076055313
  15      0.001135969008
  16     -0.000110213707
  17     -0.001681414390
  18     -0.007781229111
  19      0.001805089748
  20      0.038301727064
  21      0.000278244522
  22      0.000322501986
  23     -0.004096125145
  24     -0.000033564623
  25      0.000735953378
  26      0.000440010228
  27      0.002155450104
  28      0.002538634911
  29     -0.000328949211
  30     -0.000087990941
  31      0.002778736464
  32      0.006400399504
  33     -0.026856378715
  34     -0.000973087161
  35      0.004787866285
  36      0.000034729347
  37      0.000044911762
  38      0.000035203743
  39      0.000258771205
  40      0.000112116240
  41     -0.000049404459
  42     -0.000025520086
  43     -0.002155538252
  44      0.027066455513
  45     -0.176871414293
  46     -0.009205149356
  47     -0.005863589013
  48     -0.003206222201
  49      0.052103526581
  50      0.054254661133
  51      0.052893530672
  52     -0.000708949399
  53     -0.000549625974
  54     -0.001464322204
  55     -0.003490228864
  56     -0.000299303510
  57      0.002052080135
  58     -0.026615758335
  59      0.179951588853
  60      0.008493240044
  61      0.006819268932
  62     -0.000545180717
  63     -0.065588424546
  64     -0.052749526019
  65      0.037452121681
  66      0.000831808004
  67      0.000188959492
  68     -0.001143700004
  69      0.003596756371
  70      0.000743360497
  71     -0.016796643791
  72     -0.006535882046
  73     -0.001177213026
  74      0.002961630662
  75     -0.000660747351
  76      0.047767617675
  77      0.030032466164
  78      0.003398659801
  79      0.000046033846
  80      0.000595615046
  81     -0.047790603336
  82     -0.030360952544
  83     -0.003526733217
  84     -0.000021444248
  85     -0.000476259188
  86      0.016492559694
  87      0.006486308427
  88      0.001330186798
  89     -0.003012132882
  90     -0.000248024058
 Ene=   0.96799503729864E+00
 Spin= Alpha
 Occup=    0.000000
   1      0.000044829007
   2     -0.000098683881
   3      0.000807747979
   4     -0.036489913236
   5      0.002667434830
   6     -0.000094669995
   7      0.000012278186
   8      0.000616355455