[Molden Format]
[Title]
generated by TRESC, real part1 of MOs of job Ni0-C2H4
 
[Atoms] AU
Ni   1  28    2.0327243480    6.6651129323   -0.4637853482
 C   2   6    4.4866582262    4.9116344944    1.3008835560
 C   3   6    4.8771137450    4.8741236186   -1.3947805326
 H   4   1    5.7310700770    6.0706468704    2.4997637439
 H   5   1    3.8369470533    3.1858198160    2.2645095603
 H   6   1    4.5308414173    3.1179949920   -2.4558991994
 H   7   1    6.4130479072    6.0088908466   -2.2212746715
[GTO]
  1 0
 s  6 1.0
   105040.0623800000        0.0035171970
    13968.3586480000        0.0173391066
     2940.9041687000        0.0741624358
      786.1020253800        0.2530654570
      245.2580996100        0.5385985895
       81.4764798070        0.4440458912
 s  3 1.0
      156.2637962600       -0.1055600427
       18.1782549770        0.6426665159
        7.4444231636        0.4714885202
 s  3 1.0
       12.9345647400       -0.2291772139
        2.1221056648        0.7395224896
        0.8740880520        0.4584156000
 s  1 1.0
        0.1104545011        1.0000000000
 s  1 1.0
        0.0401880342        1.0000000000
 p  6 1.0
     2356.4518106000       -0.0000855328
      513.4513882300       -0.0005420978
      158.2013335400       -0.0024494945
       57.5500069520       -0.0071523316
       22.5659922940       -0.0118148309
        9.0452780395       -0.0071547652
 p  5 1.0
     1045.8514156000        0.0092908253
      234.8058471900        0.0670834485
       72.4328268820        0.2652923948
       25.6138643320        0.5353100645
        9.4079524620        0.3595935862
 p  1 1.0
        6.9922696496        1.0000000000
 p  3 1.0
        4.8001460600        0.3535617403
        1.8423116558        0.5937621194
        0.6865826193        0.2491809881
 p  1 1.0
        0.1465880000        1.0000000000
 d  4 1.0
       47.9675640250        0.0288745010
       13.3221273820        0.1553500110
        4.4560102246        0.3821354899
        1.4827299619        0.4857955113
 d  1 1.0
        0.4362198809        1.0000000000
 d  1 1.0
        0.1200000000        1.0000000000
 f  1 1.0
        2.1740000000        1.0000000000
 
  2 0
 s  5 1.0
     1231.7975026000        0.0058423196
      185.5974766200        0.0415113222
       42.0875016200        0.1832849990
       11.6300369400        0.4683526005
        3.5840894779        0.4430601820
 s  1 1.0
        0.4029351893        1.0000000000
 s  1 1.0
        0.1309419451        1.0000000000
 p  3 1.0
        9.4821246358        0.0381720490
        2.0121097169        0.2099973699
        0.5481253660        0.5104097902
 p  1 1.0
        0.1527756940        1.0000000000
 d  1 1.0
        0.8000000000        1.0000000000
 
  3 0
 s  5 1.0
     1231.7975026000        0.0058423196
      185.5974766200        0.0415113222
       42.0875016200        0.1832849990
       11.6300369400        0.4683526005
        3.5840894779        0.4430601820
 s  1 1.0
        0.4029351893        1.0000000000
 s  1 1.0
        0.1309419451        1.0000000000
 p  3 1.0
        9.4821246358        0.0381720490
        2.0121097169        0.2099973699
        0.5481253660        0.5104097902
 p  1 1.0
        0.1527756940        1.0000000000
 d  1 1.0
        0.8000000000        1.0000000000
 
  4 0
 s  3 1.0
       13.0107010000        0.0196821580
        1.9622572000        0.1379652400
        0.4445379600        0.4783193500
 s  1 1.0
        0.1219496200        1.0000000000
 p  1 1.0
        0.8000000000        1.0000000000
 
  5 0
 s  3 1.0
       13.0107010000        0.0196821580
        1.9622572000        0.1379652400
        0.4445379600        0.4783193500
 s  1 1.0
        0.1219496200        1.0000000000
 p  1 1.0
        0.8000000000        1.0000000000
 
  6 0
 s  3 1.0
       13.0107010000        0.0196821580
        1.9622572000        0.1379652400
        0.4445379600        0.4783193500
 s  1 1.0
        0.1219496200        1.0000000000
 p  1 1.0
        0.8000000000        1.0000000000
 
  7 0
 s  3 1.0
       13.0107010000        0.0196821580
        1.9622572000        0.1379652400
        0.4445379600        0.4783193500
 s  1 1.0
        0.1219496200        1.0000000000
 p  1 1.0
        0.8000000000        1.0000000000
 
[5D]
[7F]
[9G]
[MO]
 Ene=  -0.30263417268252E+03
 Spin= Alpha
 Occup=    1.000000
   1      0.582308362811
   2      0.011912910995
   3     -0.002861776723
   4      0.003934027474
   5     -0.000524632219
   6      0.000001228513
   7     -0.000000824238
   8      0.000000189842
   9     -0.000035367174
  10      0.000023752345
  11     -0.000005553763
  12      0.000126242021
  13     -0.000084510304
  14      0.000019766812
  15     -0.000168217417
  16      0.000112622856
  17     -0.000026311763
  18      0.001947242108
  19     -0.001302440515
  20      0.000301287942
  21      0.000027156306
  22     -0.000011902184
  23      0.000009774892
  24     -0.000027080091
  25      0.000064931349
  26     -0.000103565924
  27      0.000044853797
  28     -0.000036536802
  29      0.000101479488
  30     -0.000243364254
  31     -0.000151105946
  32      0.000085507916
  33     -0.000088272481
  34      0.000253523568
  35     -0.000605297028
  36     -0.000000357497
  37     -0.000001055574
  38      0.000000416136
  39     -0.000000048714
  40     -0.000002951286
  41     -0.000002907688
  42     -0.000015577099
  43      0.000014040373
  44      0.000188662640
  45     -0.002227842200
  46      0.000169969237
  47     -0.000116686039
  48      0.000060850355
  49      0.000737472549
  50     -0.000509714833
  51      0.000352872882
  52      0.000045153235
  53     -0.000105238356
  54      0.000069554237
  55     -0.000026170876
  56      0.000081988742
  57      0.000014272380
  58      0.000186180146
  59     -0.002237404053
  60      0.000182194395
  61     -0.000118055997
  62     -0.000006229397
  63      0.000806766283
  64     -0.000524599292
  65     -0.000108326974
  66      0.000090402925
  67      0.000056038020
  68     -0.000040565525
  69     -0.000048645211
  70      0.000100811182
  71      0.000133649376
  72      0.000269515686
  73     -0.000030266741
  74      0.000027718430
  75     -0.000030421780
  76      0.000134992702
  77      0.000271343900
  78     -0.000035217068
  79      0.000020190849
  80     -0.000031121437
  81      0.000133812090
  82      0.000269503286
  83     -0.000042497131
  84      0.000021399625
  85      0.000018853513
  86      0.000135904465
  87      0.000272577937
  88     -0.000037193301
  89      0.000028014209
  90      0.000019401940
 Ene=  -0.30263417268252E+03
 Spin= Alpha
 Occup=    0.000000
   1      0.000005932322
   2      0.000000121377
   3     -0.000000029238
   4      0.000000040846
   5     -0.000000005351
   6     -0.000000000209
   7     -0.000000000006
   8      0.000000001441
   9      0.000000008786
  10      0.000000000148
  11     -0.000000059405
  12     -0.000000003982
  13     -0.000000000857
  14      0.000000034098
  15     -0.000000000908
  16      0.000000001159
  17     -0.000000005728
  18      0.000000019428
  19     -0.000000013536
  20      0.000000009507
  21     -0.000000000172
  22     -0.000000011521
  23      0.000000001746
  24     -0.000000000038
  25      0.000000000460
  26     -0.000000000648
  27      0.000000006199
  28     -0.000000001852
  29      0.000000000867
  30     -0.000000002380
  31     -0.000000001007
  32      0.000000001367
  33     -0.000000002215
  34      0.000000002338
  35     -0.000000006063
  36     -0.000000006240
  37      0.000000003972
  38     -0.000000000615
  39      0.000000006181
  40     -0.000000002252
  41     -0.000000001078
  42      0.000000000389
  43      0.000000000041
  44      0.000000003537
  45     -0.000000041704
  46      0.000000001979
  47     -0.000000001847
  48      0.000000002461
  49      0.000000011279
  50     -0.000000007833
  51      0.000000009390
  52      0.000000000928
  53     -0.000000001197
  54      0.000000000666
  55     -0.000000000676
  56      0.000000001600
  57      0.000000000277
  58      0.000000000339
  59     -0.000000004760
  60      0.000000001279
  61     -0.000000000697
  62      0.000000001529
  63      0.000000003438
  64     -0.000000002880
  65      0.000000003221
  66      0.000000000568
  67      0.000000001007
  68     -0.000000000784
  69     -0.000000000132
  70      0.000000000456
  71      0.000000002199
  72      0.000000003841
  73     -0.000000000481
  74      0.000000000773
  75     -0.000000000466
  76      0.000000002107
  77      0.000000003627
  78     -0.000000000786
  79     -0.000000000028
  80     -0.000000000343
  81      0.000000000711
  82      0.000000001834
  83      0.000000000009
  84      0.000000000420
  85      0.000000000305
  86      0.000000000701
  87      0.000000001814
  88     -0.000000000217
  89     -0.000000000177
  90      0.000000000174
 Ene=  -0.36398175981574E+02
 Spin= Alpha
 Occup=    0.000000
   1      0.000011303118
   2     -0.000038073553
   3     -0.000000738242
   4      0.000000601060
   5     -0.000000088685
   6     -0.000000022748
   7     -0.000000000087
   8      0.000000116953
   9      0.000000950945
  10      0.000000002260
  11     -0.000004877663
  12     -0.000000138332
  13     -0.000000010124
  14      0.000000802322
  15      0.000000022262
  16      0.000000015090
  17     -0.000000239057
  18      0.000000267211
  19     -0.000000189772
  20      0.000000147891
  21      0.000000007443
  22      0.000000059949
  23      0.000000010678
  24     -0.000000010493
  25      0.000000015692
  26     -0.000000016586
  27     -0.000000022778
  28     -0.000000009674
  29      0.000000016816
  30     -0.000000036151
  31     -0.000000009791
  32      0.000000064779
  33     -0.000000040396
  34      0.000000030478
  35     -0.000000084720
  36      0.000000036068
  37     -0.000000022493
  38      0.000000003396
  39     -0.000000033042
  40      0.000000011355
  41      0.000000005261
  42     -0.000000004838
  43      0.000000003611
  44      0.000000042144
  45     -0.000000438632
  46      0.000000023158
  47     -0.000000011803
  48     -0.000000006982
  49      0.000000143480
  50     -0.000000097047
  51      0.000000060914
  52      0.000000008592
  53     -0.000000013667
  54      0.000000009244
  55     -0.000000002787
  56      0.000000007789
  57      0.000000000273
  58      0.000000010827
  59     -0.000000221442
  60      0.000000032270
  61     -0.000000022199
  62     -0.000000015001
  63      0.000000081020
  64     -0.000000052690
  65     -0.000000014460
  66      0.000000010732
  67      0.000000008269
  68     -0.000000004816
  69     -0.000000007429
  70      0.000000015682
  71      0.000000027981
  72      0.000000040814
  73     -0.000000005774
  74      0.000000003424
  75     -0.000000002688
  76      0.000000031090
  77      0.000000045033
  78     -0.000000006227
  79      0.000000005468
  80     -0.000000004361
  81      0.000000009553
  82      0.000000039206
  83     -0.000000004808
  84      0.000000001224
  85      0.000000002957
  86      0.000000011146
  87      0.000000043078
  88     -0.000000004828
  89      0.000000004124
  90      0.000000004173
 Ene=  -0.36398175981574E+02
 Spin= Alpha
 Occup=    1.000000
   1     -0.280159902062
   2      0.943694872638
   3      0.018316028754
   4     -0.015077466678
   5      0.002176646518
   6      0.000000606504
   7     -0.000000373785
   8      0.000000180948
   9     -0.000077761688
  10      0.000050717234
  11     -0.000015340483
  12     -0.000366726281
  13      0.000245886559
  14     -0.000057820484
  15      0.000566244374
  16     -0.000379019713
  17      0.000088525057
  18     -0.007187143351
  19      0.004807434658
  20     -0.001112735255
  21     -0.000035861036
  22      0.000039866539
  23     -0.000056797559
  24      0.000171545014
  25     -0.000406214323
  26      0.000349068797
  27     -0.000158996031
  28      0.000137122347
  29     -0.000385023459
  30      0.000921777967
  31      0.000567246138
  32     -0.000320127746
  33      0.000329334917
  34     -0.000944815552
  35      0.002256149090
  36      0.000000604026
  37      0.000002022233
  38     -0.000000337364
  39      0.000000411601
  40      0.000008835498
  41      0.000009036134
  42      0.000047951855
  43     -0.000049700622
  44     -0.000661497930
  45      0.008289985141
  46     -0.000625245244
  47      0.000429003488
  48     -0.000221480530
  49     -0.002721196602
  50      0.001878303725
  51     -0.001262696375
  52     -0.000160357850
  53      0.000360592593
  54     -0.000236298421
  55      0.000083724131
  56     -0.000267051098
  57     -0.000050476022
  58     -0.000651935746
  59      0.008321497895
  60     -0.000668897689
  61      0.000433709560
  62      0.000020715564
  63     -0.002965141411
  64      0.001930090026
  65      0.000360639614
  66     -0.000314747742
  67     -0.000190980847
  68      0.000140393004
  69      0.000160272323
  70     -0.000330790519
  71     -0.000502611248
  72     -0.001038745050
  73      0.000114843280
  74     -0.000093309843
  75      0.000106471599
  76     -0.000507228201
  77     -0.001044990418
  78      0.000123388737
  79     -0.000080233812
  80      0.000107806956
  81     -0.000503322545
  82     -0.001038961935
  83      0.000148636793
  84     -0.000084616935
  85     -0.000064625378
  86     -0.000510423199
  87     -0.001049365982
  88      0.000138563797
  89     -0.000094001246
  90     -0.000065338592
 Ene=  -0.31799796042211E+02
 Spin= Alpha
 Occup=    0.333977
   1      0.000001307987
   2     -0.000008709028
   3     -0.000063993082
   4      0.000568708254
   5      0.000179589955
   6      0.000991780439
   7      0.000915328944
   8      0.010806713598
   9     -0.041518805979
  10     -0.038322063145
  11     -0.452350264130
  12      0.000604438871
  13      0.000548833785
  14      0.006341695295
  15     -0.000875226026
  16     -0.000755174970
  17     -0.009410530818
  18      0.000334000583
  19     -0.000138568860
  20      0.003847437573
  21     -0.000004564995
  22     -0.000025140499
  23      0.000018744922
  24      0.000004588769
  25      0.000007440986
  26      0.000009324972
  27      0.000084381826
  28     -0.000060284843
  29     -0.000010530943
  30     -0.000024922711
  31      0.000326967736
  32      0.001489064246
  33     -0.001008036078
  34     -0.000016521556
  35     -0.000013574254
  36     -0.000026903960
  37      0.000014362286
  38     -0.000009390411
  39      0.000005844872
  40     -0.000018133708
  41     -0.000004572461
  42      0.000003296608
  43     -0.000027267067
  44      0.000538817304
  45     -0.005955184657
  46     -0.000030164801
  47      0.000034217786
  48      0.000006558835
  49      0.001515154538
  50     -0.001202867895
  51      0.001169186409
  52      0.000069671250
  53      0.000016406177
  54     -0.000023757422
  55      0.000015192324
  56     -0.000008828513
  57      0.000035985961
  58     -0.000579226852
  59      0.005044109953
  60      0.000127961147
  61     -0.000070252260
  62      0.000013785530
  63     -0.001509982904
  64      0.000834179216
  65      0.000542283416
  66     -0.000025995838
  67      0.000058504208
  68     -0.000027121729
  69     -0.000002839136
  70      0.000023806636
  71      0.000435111855
  72      0.000134017565
  73     -0.000038590555
  74      0.000058421373
  75      0.000000159424
  76      0.000356542782
  77      0.000152120532
  78     -0.000082101328
  79      0.000031627909
  80     -0.000004955631
  81     -0.000360646688
  82     -0.000164528877
  83      0.000060815851
  84     -0.000007600429
  85      0.000021401738
  86     -0.000285177715
  87     -0.000181975446
  88      0.000051608741
  89     -0.000058926394
  90      0.000021638754
 Ene=  -0.31799796042211E+02
 Spin= Alpha
 Occup=    0.666023
   1     -0.000003033152
   2      0.000029800883
   3      0.000292340066
   4     -0.002695965542
   5     -0.000810739246
   6     -0.012454079888
   7     -0.004172610465
   8      0.001347165873
   9      0.521328227786
  10      0.174698912346
  11     -0.056387120547
  12     -0.007427283629
  13     -0.002512834175
  14      0.000776353955
  15      0.010894441516
  16      0.003431726352
  17     -0.001163503554
  18     -0.004291335303
  19      0.000812862988
  20      0.000465602072
  21     -0.000011638174
  22     -0.000005091801
  23     -0.000002509500
  24     -0.000006546963
  25     -0.000048906949
  26      0.000065189273
  27      0.000005699545
  28      0.000008770684
  29     -0.000001298723
  30      0.000160670107
  31      0.000452725951
  32      0.000187402143
  33     -0.000170800784
  34     -0.000944012684
  35      0.000861339594
  36     -0.000011298775
  37     -0.000002707484
  38      0.000016521643
  39      0.000006269689
  40     -0.000009361154
  41      0.000017784388
  42      0.000002465295
  43     -0.000028495778
  44      0.000248837123
  45      0.000545550214
  46     -0.000243817955
  47      0.000091235226
  48     -0.000074322224
  49     -0.000094766944
  50      0.000639101978
  51     -0.000123958297
  52     -0.000020574879
  53      0.000054746473
  54     -0.000022267724
  55     -0.000064126255
  56     -0.000016201461
  57     -0.000010074545
  58     -0.000070679185
  59      0.003734171861
  60     -0.000208997466
  61      0.000060879294
  62      0.000006940390
  63     -0.001085889763
  64      0.001242675021
  65      0.000416177546
  66     -0.000070878596
  67     -0.000021932911
  68     -0.000002394271
  69     -0.000056756665
  70     -0.000009531309
  71     -0.000262087119
  72      0.000153355286
  73     -0.000058614717
  74      0.000022602282
  75      0.000008807966
  76      0.000130351962
  77      0.000061408723
  78      0.000022681883
  79     -0.000053212563
  80      0.000017928275
  81     -0.000077470994
  82     -0.000028894907
  83      0.000068197820
  84     -0.000065387631
  85      0.000002946284
  86     -0.000467831458
  87      0.000069971161
  88     -0.000030368070
  89     -0.000010576126
  90     -0.000014544399
 Ene=  -0.31154629023659E+02
 Spin= Alpha
 Occup=    0.394448
   1      0.000004401489
   2     -0.000024073109
   3     -0.000123513464
   4      0.001143592556
   5      0.000359650206
   6      0.001852392941
   7     -0.005854376010
   8     -0.000215260446
   9     -0.077575764213
  10      0.245209371299
  11      0.009016843968
  12     -0.000855361179
  13      0.002526862030
  14      0.000093548357
  15     -0.001389295642
  16      0.004191284120
  17      0.000142962584
  18      0.001175106359
  19     -0.001329039660
  20      0.000041055443
  21      0.000001906396
  22     -0.000001723861
  23      0.000000521000
  24     -0.000014327365
  25      0.000010407475
  26     -0.000022591512
  27      0.000009133306
  28     -0.000004331236
  29      0.000038327058
  30     -0.000043374705
  31     -0.000167565956
  32     -0.000001613175
  33     -0.000036674675
  34      0.000062068225
  35     -0.000500105078
  36      0.000005546356
  37      0.000010422226
  38     -0.000001645059
  39     -0.000001532462
  40      0.000001500052
  41      0.000008125807
  42     -0.000001216453
  43      0.000008681251
  44     -0.000062346436
  45     -0.000698489792
  46      0.000069840055
  47     -0.000068810110
  48      0.000024362696
  49      0.000341519089
  50     -0.000082794492
  51      0.000165150271
  52      0.000014205867
  53     -0.000015620705
  54      0.000010039464
  55     -0.000008615381
  56     -0.000017034210
  57      0.000006054405
  58     -0.000019074906
  59     -0.001138065469
  60      0.000066713624
  61     -0.000064334301
  62     -0.000002237089
  63      0.000503474719
  64     -0.000167096030
  65     -0.000103972094
  66      0.000022017218
  67     -0.000000467194
  68     -0.000011532352
  69     -0.000009124511
  70     -0.000016617315
  71      0.000006540213
  72     -0.000021408457
  73     -0.000020457834
  74      0.000004003329
  75     -0.000008587991
  76      0.000114098367
  77     -0.000050867113
  78      0.000008595932
  79     -0.000009491293
  80     -0.000004448487
  81      0.000143135679
  82     -0.000037524371
  83      0.000001294811
  84     -0.000007407211
  85      0.000005639605
  86      0.000035548476
  87     -0.000007320738
  88     -0.000025569201
  89      0.000008438482
  90      0.000000963074
 Ene=  -0.31154629023659E+02
 Spin= Alpha
 Occup=    0.605552
   1     -0.000000997681
   2      0.000003936298
   3      0.000007381991
   4     -0.000047825776
   5     -0.000023223778
   6      0.002067404033
   7      0.000205959332
   8     -0.014510230319
   9     -0.086590047082
  10     -0.008627157826
  11      0.607734986433
  12     -0.000914170377
  13     -0.000083547791
  14      0.006448176381
  15     -0.001471706212
  16     -0.000147752342
  17      0.010356034745
  18      0.000497263205
  19      0.000025260862
  20     -0.003771823352
  21      0.000006156671
  22      0.000023572231
  23     -0.000016396531
  24     -0.000002173904
  25      0.000002241280
  26     -0.000018464961
  27     -0.000072587131
  28      0.000049553481
  29      0.000007317678
  30     -0.000005766892
  31     -0.000393828858
  32     -0.001450297960
  33      0.000992200024
  34      0.000202329501
  35     -0.000138422611
  36      0.000035177520
  37     -0.000016576656
  38      0.000006316170
  39     -0.000006590679
  40      0.000020232693
  41      0.000000247368
  42     -0.000003853084
  43      0.000032013177
  44     -0.000553746209
  45      0.005522846534
  46      0.000080947103
  47     -0.000052232027
  48      0.000010291394
  49     -0.001427407356
  50      0.001011279845
  51     -0.001071897586
  52     -0.000057997875
  53     -0.000033177289
  54      0.000031405899
  55     -0.000003983241
  56      0.000020227171
  57     -0.000033165104
  58      0.000559968528
  59     -0.005438198304
  60     -0.000089175453
  61      0.000061620532
  62     -0.000013862111
  63      0.001618023538
  64     -0.001027476669
  65     -0.000576608441
  66      0.000030571389
  67     -0.000053856483
  68      0.000028744052
  69      0.000018512421
  70     -0.000028911512
  71     -0.000360656829
  72     -0.000152537681
  73      0.000048726712
  74     -0.000058594083
  75     -0.000002408463
  76     -0.000369376245
  77     -0.000149938479
  78      0.000071400215
  79     -0.000018937544
  80      0.000000278662
  81      0.000351717700
  82      0.000159200207
  83     -0.000069704943
  84      0.000020636872
  85     -0.000021626303
  86      0.000362848787
  87      0.000154314391
  88     -0.000040968710
  89      0.000056056367
  90     -0.000018288176
 Ene=  -0.31139910237244E+02
 Spin= Alpha
 Occup=    0.055519
   1      0.000000199661
   2     -0.000001470427
   3     -0.000010606182
   4      0.000105486136
   5      0.000031037607
   6      0.000884386157
   7     -0.000419688922
   8     -0.004213531211
   9     -0.037041070959
  10      0.017578507009
  11      0.176478773197
  12     -0.000417149081
  13      0.000196891073
  14      0.001975453429
  15     -0.000632329370
  16      0.000298907396
  17      0.002990710580
  18      0.000276212620
  19     -0.000115385010
  20     -0.001077137245
  21      0.000001952021
  22      0.000006635032
  23     -0.000004619825
  24     -0.000001752285
  25      0.000001877387
  26     -0.000007650041
  27     -0.000019905523
  28      0.000013664217
  29      0.000005345432
  30     -0.000006438301
  31     -0.000130459648
  32     -0.000415638555
  33      0.000281349039
  34      0.000069990333
  35     -0.000089686495
  36      0.000010949334
  37     -0.000003893328
  38      0.000001433264
  39     -0.000002262998
  40      0.000006091524
  41      0.000000625754
  42     -0.000001167810
  43      0.000010149090
  44     -0.000165382943
  45      0.001511601337
  46      0.000031007834
  47     -0.000021618103
  48      0.000005576697
  49     -0.000376932424
  50      0.000277017343
  51     -0.000290553581
  52     -0.000015120998
  53     -0.000011226433
  54      0.000009989352
  55     -0.000001477952
  56      0.000004378215
  57     -0.000008923958
  58      0.000158571096
  59     -0.001678970663
  60     -0.000018255843
  61      0.000011608923
  62     -0.000004161203
  63      0.000513903377
  64     -0.000316811773
  65     -0.000176567053
  66      0.000011025080
  67     -0.000015347900
  68      0.000007256929
  69      0.000004990480
  70     -0.000009908212
  71     -0.000100553461
  72     -0.000046602341
  73      0.000012533783
  74     -0.000016542124
  75     -0.000001498021
  76     -0.000096357495
  77     -0.000047697199
  78      0.000020957005
  79     -0.000005854648
  80     -0.000000459633
  81      0.000113631483
  82      0.000042283455
  83     -0.000020262376
  84      0.000005732400
  85     -0.000005703869
  86      0.000110093308
  87      0.000042750166
  88     -0.000013714656
  89      0.000016783700
  90     -0.000005048893
 Ene=  -0.31139910237244E+02
 Spin= Alpha
 Occup=    0.944481
   1     -0.000011808933
   2      0.000063916659
   3      0.000319613548
   4     -0.002977125633
   5     -0.000940476588
   6     -0.009570470248
   7      0.008262258552
   8      0.000012666617
   9      0.400841358257
  10     -0.346057203288
  11     -0.000531398109
  12      0.004505202110
  13     -0.003859038975
  14     -0.000009268428
  15      0.006926714490
  16     -0.005935048131
  17      0.000013157595
  18     -0.003619372203
  19      0.002623323406
  20     -0.000169935704
  21     -0.000005037823
  22      0.000001752605
  23     -0.000002950447
  24      0.000018869257
  25     -0.000034642232
  26      0.000059343321
  27     -0.000018635465
  28      0.000014127736
  29     -0.000062157998
  30      0.000127921901
  31      0.000433372617
  32     -0.000032763610
  33      0.000072671107
  34     -0.000444329262
  35      0.001185212618
  36     -0.000013550248
  37     -0.000022422140
  38      0.000014170774
  39      0.000005609055
  40     -0.000006635797
  41     -0.000004185499
  42     -0.000000519028
  43     -0.000022754832
  44      0.000163580108
  45      0.001816673528
  46     -0.000203265413
  47      0.000147637742
  48     -0.000066046560
  49     -0.000733125804
  50      0.000449537050
  51     -0.000411288878
  52     -0.000036372764
  53      0.000041242554
  54     -0.000020451059
  55     -0.000009353351
  56      0.000030723575
  57     -0.000015830259
  58      0.000050883655
  59      0.002965419165
  60     -0.000194756821
  61      0.000135683968
  62      0.000003192979
  63     -0.001161339647
  64      0.000672001315
  65      0.000290713935
  66     -0.000058686148
  67     -0.000007650138
  68      0.000019512470
  69     -0.000005971541
  70      0.000031766181
  71     -0.000134544938
  72      0.000088029198
  73      0.000017438675
  74     -0.000002022179
  75      0.000017517427
  76     -0.000179767755
  77      0.000100895577
  78     -0.000000974782
  79     -0.000005350272
  80      0.000014934636
  81     -0.000255554208
  82      0.000067310106
  83      0.000018236191
  84     -0.000010645921
  85     -0.000010516752
  86     -0.000209285620
  87      0.000055699538
  88      0.000030041609
  89     -0.000013402485
  90     -0.000007745696
 Ene=  -0.10224001373284E+02
 Spin= Alpha
 Occup=    0.000010
   1     -0.000000047619
   2      0.000000099280
   3     -0.000000892748
   4     -0.000013002669
   5      0.000001657920
   6     -0.000000001857
   7      0.000000001959
   8     -0.000000009256
   9      0.000000006603
  10     -0.000000005868
  11      0.000000015718
  12      0.000000266051
  13     -0.000000137434
  14     -0.000000358865
  15     -0.000000531240
  16      0.000000336703
  17      0.000000275308
  18     -0.000002088170
  19      0.000002065519
  20     -0.000008592639
  21      0.000000181465
  22     -0.000000285760
  23      0.000000187667
  24     -0.000000248449
  25      0.000000613672
  26     -0.000000608925
  27      0.000001135043
  28     -0.000000848414
  29      0.000000894208
  30     -0.000002294665
  31     -0.000001853395
  32     -0.000003032135
  33      0.000002102295
  34      0.000000885377
  35     -0.000001414594
  36     -0.000000103408
  37      0.000000022840
  38     -0.000000024342
  39      0.000000058337
  40     -0.000000208050
  41     -0.000000056539
  42     -0.000000235771
  43     -0.001981209196
  44     -0.000097842468
  45      0.000095658008
  46     -0.000000257407
  47      0.000000317479
  48     -0.000002210503
  49     -0.000004358939
  50      0.000003870355
  51     -0.000011638980
  52     -0.000001022712
  53     -0.000001240236
  54      0.000000685165
  55      0.000001371839
  56     -0.000002888033
  57     -0.000328371509
  58     -0.000010794161
  59     -0.000024293744
  60      0.000000092664
  61     -0.000000469741
  62      0.000005973263
  63      0.000001541459
  64     -0.000000183513
  65     -0.000010854095
  66      0.000002927955
  67     -0.000000502662
  68     -0.000000154583
  69      0.000000038558
  70     -0.000000011546
  71      0.000010745920
  72     -0.000016135736
  73     -0.000003011418
  74     -0.000003684894
  75     -0.000002100655
  76      0.000010764286
  77     -0.000016082904
  78      0.000002336305
  79      0.000004473465
  80     -0.000001351821
  81      0.000002407340
  82     -0.000001604108
  83      0.000000417909
  84      0.000000281800
  85     -0.000000161479
  86      0.000002342993
  87     -0.000001569400
  88     -0.000000048673
  89     -0.000000472472
  90     -0.000000286607
 Ene=  -0.10224001373284E+02
 Spin= Alpha
 Occup=    0.999990
   1     -0.000016262046
   2      0.000033196497
   3     -0.000311360405
   4     -0.004601513591
   5      0.000587565829
   6     -0.000000613936
   7      0.000000511007
   8     -0.000001337438