[Molden Format]
[Title]
generated by TRESC, imaginary part2 of MOs of job Ni0-C2H4
 
[Atoms] AU
Ni   1  28    2.0327243480    6.6651129323   -0.4637853482
 C   2   6    4.4866582262    4.9116344944    1.3008835560
 C   3   6    4.8771137450    4.8741236186   -1.3947805326
 H   4   1    5.7310700770    6.0706468704    2.4997637439
 H   5   1    3.8369470533    3.1858198160    2.2645095603
 H   6   1    4.5308414173    3.1179949920   -2.4558991994
 H   7   1    6.4130479072    6.0088908466   -2.2212746715
[GTO]
  1 0
 s  6 1.0
   105040.0623800000        0.0035171970
    13968.3586480000        0.0173391066
     2940.9041687000        0.0741624358
      786.1020253800        0.2530654570
      245.2580996100        0.5385985895
       81.4764798070        0.4440458912
 s  3 1.0
      156.2637962600       -0.1055600427
       18.1782549770        0.6426665159
        7.4444231636        0.4714885202
 s  3 1.0
       12.9345647400       -0.2291772139
        2.1221056648        0.7395224896
        0.8740880520        0.4584156000
 s  1 1.0
        0.1104545011        1.0000000000
 s  1 1.0
        0.0401880342        1.0000000000
 p  6 1.0
     2356.4518106000       -0.0000855328
      513.4513882300       -0.0005420978
      158.2013335400       -0.0024494945
       57.5500069520       -0.0071523316
       22.5659922940       -0.0118148309
        9.0452780395       -0.0071547652
 p  5 1.0
     1045.8514156000        0.0092908253
      234.8058471900        0.0670834485
       72.4328268820        0.2652923948
       25.6138643320        0.5353100645
        9.4079524620        0.3595935862
 p  1 1.0
        6.9922696496        1.0000000000
 p  3 1.0
        4.8001460600        0.3535617403
        1.8423116558        0.5937621194
        0.6865826193        0.2491809881
 p  1 1.0
        0.1465880000        1.0000000000
 d  4 1.0
       47.9675640250        0.0288745010
       13.3221273820        0.1553500110
        4.4560102246        0.3821354899
        1.4827299619        0.4857955113
 d  1 1.0
        0.4362198809        1.0000000000
 d  1 1.0
        0.1200000000        1.0000000000
 f  1 1.0
        2.1740000000        1.0000000000
 
  2 0
 s  5 1.0
     1231.7975026000        0.0058423196
      185.5974766200        0.0415113222
       42.0875016200        0.1832849990
       11.6300369400        0.4683526005
        3.5840894779        0.4430601820
 s  1 1.0
        0.4029351893        1.0000000000
 s  1 1.0
        0.1309419451        1.0000000000
 p  3 1.0
        9.4821246358        0.0381720490
        2.0121097169        0.2099973699
        0.5481253660        0.5104097902
 p  1 1.0
        0.1527756940        1.0000000000
 d  1 1.0
        0.8000000000        1.0000000000
 
  3 0
 s  5 1.0
     1231.7975026000        0.0058423196
      185.5974766200        0.0415113222
       42.0875016200        0.1832849990
       11.6300369400        0.4683526005
        3.5840894779        0.4430601820
 s  1 1.0
        0.4029351893        1.0000000000
 s  1 1.0
        0.1309419451        1.0000000000
 p  3 1.0
        9.4821246358        0.0381720490
        2.0121097169        0.2099973699
        0.5481253660        0.5104097902
 p  1 1.0
        0.1527756940        1.0000000000
 d  1 1.0
        0.8000000000        1.0000000000
 
  4 0
 s  3 1.0
       13.0107010000        0.0196821580
        1.9622572000        0.1379652400
        0.4445379600        0.4783193500
 s  1 1.0
        0.1219496200        1.0000000000
 p  1 1.0
        0.8000000000        1.0000000000
 
  5 0
 s  3 1.0
       13.0107010000        0.0196821580
        1.9622572000        0.1379652400
        0.4445379600        0.4783193500
 s  1 1.0
        0.1219496200        1.0000000000
 p  1 1.0
        0.8000000000        1.0000000000
 
  6 0
 s  3 1.0
       13.0107010000        0.0196821580
        1.9622572000        0.1379652400
        0.4445379600        0.4783193500
 s  1 1.0
        0.1219496200        1.0000000000
 p  1 1.0
        0.8000000000        1.0000000000
 
  7 0
 s  3 1.0
       13.0107010000        0.0196821580
        1.9622572000        0.1379652400
        0.4445379600        0.4783193500
 s  1 1.0
        0.1219496200        1.0000000000
 p  1 1.0
        0.8000000000        1.0000000000
 
[5D]
[7F]
[9G]
[MO]
 Ene=   0.69823811633458E+00
 Spin= Alpha
 Occup=    0.000000
   1     -0.000049245949
   2      0.000122471646
   3     -0.000832015339
   4      0.012771824363
   5     -0.001659707183
   6      0.000001931642
   7     -0.000000456562
   8     -0.000003199936
   9      0.000015786701
  10     -0.000041643694
  11      0.000083750041
  12      0.000002917497
  13     -0.000007439781
  14      0.000009740834
  15     -0.000062282831
  16      0.000150946675
  17     -0.000281838258
  18      0.006786161776
  19     -0.003612050242
  20      0.002800876136
  21     -0.000840443599
  22     -0.003518400466
  23     -0.005523417565
  24      0.000295771141
  25      0.000773668858
  26     -0.003336334774
  27     -0.014177604379
  28     -0.022152318643
  29      0.002966256244
  30      0.002786201954
  31      0.003316851981
  32      0.010136659390
  33      0.014077990831
  34     -0.000681738555
  35     -0.003539277235
  36     -0.000009392535
  37     -0.000055710009
  38     -0.000015409255
  39     -0.000190734318
  40     -0.000083419644
  41      0.000048669736
  42     -0.000005546952
  43     -0.000267092259
  44      0.003736376711
  45     -0.008521493116
  46     -0.307595604614
  47     -0.465495741872
  48     -0.035537537637
  49      0.496505555370
  50      0.743420030364
  51      0.056281987616
  52      0.005725611541
  53      0.027331942873
  54      0.037483345884
  55      0.030203495055
  56      0.009570183232
  57     -0.001631657508
  58      0.012045245153
  59     -0.036002651120
  60      0.310831511039
  61      0.466387294257
  62      0.037237251118
  63     -0.493375439326
  64     -0.750146953836
  65     -0.060387005106
  66      0.004371523740
  67      0.017668359104
  68      0.032550593948
  69     -0.037931247957
  70     -0.019841064233
  71      0.283872022054
  72     -0.683559511610
  73      0.038254352837
  74      0.021869874886
  75      0.062088017132
  76     -0.280920301148
  77      0.688981437286
  78      0.009542495225
  79      0.050649238980
  80     -0.055900360386
  81      0.280649338679
  82     -0.678087756383
  83      0.007281478694
  84     -0.051934760061
  85     -0.054626918431
  86     -0.283455425688
  87      0.699667458006
  88     -0.055068424415
  89     -0.021181695060
  90      0.049283951870
 Ene=   0.72465312810647E+00
 Spin= Alpha
 Occup=    0.000000
   1     -0.000057471520
   2      0.000159048252
   3     -0.000908582943
   4      0.004378062489
   5      0.000040459410
   6     -0.000001670299
   7      0.000003572681
   8     -0.000002937985
   9      0.000152509977
  10     -0.000097185971
  11      0.000148268826
  12      0.000126533332
  13      0.000001235094
  14     -0.000636244790
  15     -0.000835636265
  16      0.000081735369
  17      0.000296074640
  18      0.023433935565
  19      0.027735200169
  20      0.008523716365
  21     -0.000031170958
  22      0.000659998954
  23     -0.000426000498
  24      0.000342072567
  25     -0.000276025224
  26      0.000211038690
  27      0.000577164976
  28      0.000581521532
  29      0.006409942532
  30      0.003177029976
  31     -0.000022412802
  32      0.005764991940
  33     -0.000592571142
  34      0.019466686053
  35      0.005381418966
  36      0.000010607777
  37      0.000016140654
  38      0.000030081014
  39     -0.000022820427
  40      0.000023249611
  41     -0.000016803882
  42      0.000026071814
  43     -0.000625820491
  44      0.006554862104
  45     -0.012094693149
  46      0.046897049661
  47      0.071573472296
  48      0.025040946967
  49     -0.066133995891
  50     -0.108856142515
  51     -0.036407353523
  52      0.000238257453
  53     -0.004670394154
  54     -0.005484303840
  55     -0.004726068912
  56     -0.002419696977
  57      0.000548749357
  58     -0.005822114404
  59      0.000526340105
  60      0.048744760129
  61      0.071337960707
  62      0.024114200749
  63     -0.068724349963
  64     -0.108341041127
  65     -0.036691453036
  66     -0.000634071158
  67      0.002709597463
  68      0.004960079596
  69     -0.006507801596
  70     -0.002673128579
  71     -0.008901873122
  72      0.104056642081
  73     -0.010045591704
  74     -0.005073341466
  75     -0.002833485818
  76     -0.000934399745
  77     -0.072298549111
  78      0.000106278747
  79     -0.009015746276
  80      0.001816518168
  81      0.007734139083
  82     -0.101367342817
  83     -0.000205222830
  84     -0.011433751413
  85     -0.001326417963
  86     -0.001297072949
  87      0.076876044430
  88     -0.008808576260
  89     -0.003416022040
  90      0.000610314156
 Ene=   0.72465312810648E+00
 Spin= Alpha
 Occup=    0.000000
   1      0.007602343150
   2     -0.021594096653
   3      0.118029438002
   4     -0.225074184980
   5     -0.016828594001
   6      0.000524795710
   7     -0.000364598785
   8      0.000083673485
   9     -0.024966156972
  10      0.016591182368
  11     -0.003884846465
  12     -0.002975631668
  13      0.001515209584
  14     -0.000499250927
  15      0.088905987384
  16     -0.056333295288
  17      0.013819340041
  18     -0.538380363573
  19      0.091211515316
  20     -0.077155561454
  21      0.030255856934
  22     -0.013404091619
  23      0.010681165469
  24     -0.032203303029
  25      0.073546056865
  26     -0.039311953545
  27      0.011304156370
  28     -0.016310726962
  29     -0.004165806086
  30     -0.103268986731
  31      0.210324269567
  32     -0.101588107553
  33      0.054412703740
  34     -0.287695686054
  35      0.368834219840
  36     -0.000572651418
  37     -0.001468180227
  38      0.000694298688
  39      0.000288907971
  40     -0.001104052402
  41     -0.000807528941
  42     -0.004967570491
  43     -0.013257547970
  44      0.153453434360
  45      0.311166728482
  46     -0.712881610901
  47     -0.159633623753
  48     -0.188854748082
  49      0.628577481037
  50      0.538370689621
  51      0.049940278031
  52      0.021217639916
  53      0.045966035473
  54      0.020725136944
  55      0.021487968926
  56      0.029076828739
  57     -0.012843296496
  58      0.149603848721
  59      0.333879668088
  60     -0.738811551204
  61     -0.154149711081
  62     -0.011295331005
  63      0.615375499736
  64      0.538430206409
  65      0.110775180568
  66     -0.001367329753
  67     -0.043452026974
  68     -0.010156729753
  69      0.034620689279
  70      0.032581328641
  71      0.264160987619
  72     -0.727420571480
  73      0.064392841984
  74      0.036789859040
  75      0.027035916222
  76      0.209847622718
  77      0.360764456144
  78     -0.005411795478
  79      0.049926024765
  80     -0.003200325014
  81      0.215002894337
  82      0.348167248748
  83     -0.006291187357
  84      0.048801770963
  85     -0.000291604586
  86      0.263873208026
  87     -0.730757978624
  88      0.069512857594
  89      0.036653083933
  90     -0.008311868950
 Ene=   0.72502019396083E+00
 Spin= Alpha
 Occup=    0.000000
   1      0.000142063900
   2     -0.000407319437
   3      0.002190797516
   4     -0.001834085767
   5     -0.000420854898
   6      0.000011795330
   7     -0.000005817534
   8      0.000000794419
   9     -0.000469414320
  10      0.000355339709
  11     -0.000060227039
  12      0.000065755257
  13      0.000355623626
  14      0.000599862295
  15      0.001325174909
  16     -0.001915613020
  17     -0.000592480441
  18      0.014568529207
  19      0.036797414212
  20      0.000316599269
  21      0.000561702318
  22     -0.000370167195
  23      0.000373528134
  24     -0.000342996608
  25      0.001573628265
  26     -0.000679370420
  27      0.001442323537
  28      0.000280500511
  29      0.007742911146
  30      0.001143753502
  31      0.004574465259
  32      0.000488027764
  33      0.003095085333
  34      0.016316409732
  35      0.016292402417
  36     -0.000004005475
  37     -0.000013779403
  38      0.000047013581
  39     -0.000005608368
  40     -0.000031488833
  41     -0.000046280172
  42     -0.000095998630
  43      0.000092477597
  44      0.000268263130
  45      0.011926422081
  46      0.042978558719
  47      0.082323295087
  48     -0.002739791392
  49     -0.071477620753
  50     -0.117289998292
  51     -0.001832758210
  52     -0.000885807746
  53     -0.003746499873
  54     -0.006263246388
  55     -0.005745322428
  56     -0.001190971968
  57     -0.000800442646
  58      0.007869172352
  59     -0.005475421681
  60      0.041404149643
  61      0.081395644203
  62      0.000602176369
  63     -0.070645080474
  64     -0.115360294389
  65     -0.000163378473
  66      0.001101095263
  67      0.002008710681
  68      0.005270520148
  69     -0.006490986351
  70     -0.003234606422
  71      0.002220258225
  72      0.084262118272
  73     -0.009084112626
  74     -0.003836536195
  75     -0.002829452772
  76      0.011158198847
  77     -0.102460896831
  78     -0.000650838645
  79     -0.011580130858
  80      0.001956136565
  81      0.007576969075
  82     -0.088945408266
  83      0.000249206708
  84     -0.010566026910
  85     -0.001569392153
  86     -0.000049935421
  87      0.094441455042
  88     -0.010104513810
  89     -0.004406125236
  90     -0.000023067600
 Ene=   0.72502019396084E+00
 Spin= Alpha
 Occup=    0.000000
   1     -0.009294243424
   2      0.026445273259
   3     -0.144120380127
   4      0.246809857192
   5      0.021455997969
   6     -0.000659494991
   7      0.000441181737
   8     -0.000103687112
   9      0.030756262008
  10     -0.020523674193
  11      0.004778231458
  12      0.003583811215
  13     -0.002063814577
  14      0.000526986210
  15     -0.108265666244
  16      0.071695477385
  17     -0.016747932071
  18      0.504486221602
  19     -0.320676716810
  20      0.076853340347
  21     -0.037472506074
  22      0.016307127767
  23     -0.013475627145
  24      0.038402705015
  25     -0.091996496288
  26      0.048660376955
  27     -0.020566041671
  28      0.016692441140
  29     -0.042445787557
  30      0.109269945600
  31     -0.265165592955
  32      0.107859889765
  33     -0.078406747033
  34      0.220401907314
  35     -0.510979084230
  36      0.000682525324
  37      0.001741895935
  38     -0.001079232428
  39     -0.000286044287
  40      0.001425294891
  41      0.001173837907
  42      0.006164363182
  43      0.017691590402
  44     -0.203215178339
  45     -0.349548519903
  46      0.536387602171
  47     -0.329217629106
  48      0.191112077942
  49     -0.270070343845
  50      0.121095489790
  51      0.004531521964
  52     -0.020521892325
  53     -0.027634599226
  54      0.015656829788
  55      0.010445480276
  56     -0.023916944475
  57      0.017299915130
  58     -0.200333895869
  59     -0.365743197040
  60      0.571833474314
  61     -0.334268154491
  62     -0.026173112806
  63     -0.261557683784
  64      0.119675922928
  65     -0.078824361500
  66     -0.002871655736
  67      0.036098473087
  68     -0.022351829848
  69      0.002012536272
  70     -0.017606161405
  71     -0.302197833072
  72      0.253150264175
  73     -0.014047699038
  74     -0.015220856949
  75     -0.012731067706
  76     -0.297152211906
  77      0.187559437131
  78      0.009068638564
  79      0.012563229229
  80     -0.008558600414
  81     -0.302500651170
  82      0.196933249906
  83      0.006347459260
  84      0.013729191641
  85      0.010603654082
  86     -0.302865426800
  87      0.259077059640
  88     -0.017233861122
  89     -0.015299743809
  90      0.008604624032
 Ene=   0.73660886070344E+00
 Spin= Alpha
 Occup=    0.000000
   1      0.000580913310
   2     -0.001481526447
   3      0.009674270922
   4     -0.119995745494
   5     -0.001732041281
   6      0.000005408889
   7     -0.000001812769
   8     -0.000023795786
   9     -0.000994210284
  10      0.000588316598
  11      0.000822029969
  12     -0.000017696495
  13     -0.000061509231
  14     -0.000389276005
  15      0.003378774376
  16     -0.001885768362
  17     -0.002310212425
  18     -0.077654913994
  19      0.047682440207
  20      0.021399583565
  21      0.001685749515
  22      0.002679220616
  23     -0.001867882484
  24     -0.000787997116
  25      0.001247998959
  26      0.001928359825
  27     -0.001309971059
  28      0.000874967922
  29     -0.001566483457
  30      0.003184392575
  31     -0.004132175277
  32      0.016970960940
  33     -0.009517812616
  34     -0.008596268962
  35      0.014927517107
  36      0.000096461599
  37      0.000098326228
  38     -0.000054373715
  39     -0.000096082971
  40      0.000213628474
  41      0.000036187286
  42      0.000089003425
  43      0.003981524679
  44     -0.035306144924
  45      0.169335591917
  46     -0.024461483199
  47      0.005153690422
  48      0.080919628478
  49      0.008701636055
  50      0.011266424910
  51     -0.123932541273
  52      0.004822614727
  53     -0.004838900349
  54      0.002523303870
  55      0.002011871460
  56     -0.003142860533
  57      0.004660554956
  58     -0.063147548012
  59      0.142939704327
  60     -0.012564620668
  61     -0.001767741625
  62      0.087329447417
  63     -0.017924204846
  64      0.028191429886
  65     -0.153174313448
  66     -0.005606626871
  67      0.002984461072
  68     -0.001110916936
  69     -0.001067734520
  70      0.002485169947
  71     -0.041922287744
  72      0.022285451926
  73     -0.004251404833
  74     -0.002034805623
  75      0.000232629139
  76     -0.042123651084
  77      0.029690193540
  78      0.000184160715
  79      0.005517840176
  80      0.000557528846
  81     -0.012606153492
  82     -0.077028002061
  83     -0.003295743891
  84     -0.004048919194
  85      0.001131370286
  86     -0.012688419584
  87     -0.081722278302
  88      0.002876571669
  89      0.004685010500
  90      0.001939887374
 Ene=   0.73660886070345E+00
 Spin= Alpha
 Occup=    0.000000
   1     -0.005133624655
   2      0.013235021545
   3     -0.084937007616
   4      0.976359275977
   5      0.016266329559
   6     -0.000045268625
   7      0.000034155289
   8     -0.000035060380
   9      0.008254709517
  10     -0.005736484073
  11      0.002405779764
  12      0.000147261601
  13     -0.001324209735
  14      0.000189836814
  15     -0.027893130580
  16      0.021005225745
  17     -0.008382411637
  18      0.597610842153
  19     -0.409094031594
  20      0.130447925798
  21     -0.007849458092
  22      0.006137839733
  23     -0.003916518388
  24      0.004500497757
  25     -0.011598146591
  26     -0.014802664202
  27      0.005053918314
  28     -0.003299838219
  29      0.007989382216
  30     -0.021946138685
  31      0.060577642991
  32      0.014052187060
  33     -0.028424762591
  34      0.052003875040
  35     -0.131724357815
  36     -0.000368793688
  37     -0.001061533876
  38      0.000738878319
  39      0.000142158175
  40     -0.000143619231
  41     -0.000124018462
  42     -0.000703406214
  43     -0.034131903500
  44      0.400638244764
  45     -1.259215412893
  46      0.036403111621
  47     -0.040079241070
  48      0.121459419094
  49      0.256721613229
  50     -0.144465327483
  51     -0.203400402112
  52      0.011993375556
  53      0.018059659989
  54     -0.012820154187
  55     -0.001555328469
  56      0.001256625141
  57     -0.033218113942
  58      0.369155860546
  59     -1.282160508763
  60      0.053639586922
  61     -0.054518169329
  62      0.078092535041
  63      0.204834536097
  64     -0.110088882643
  65     -0.016611833340
  66     -0.011897576862
  67     -0.020695206961
  68      0.014578490589
  69      0.001832331962
  70      0.002059057746
  71      0.190777127206
  72      0.275503250368
  73      0.002788206911
  74     -0.013368767575
  75      0.004622589485
  76      0.190838980929
  77      0.285079115717
  78      0.012654207421
  79      0.003802568887
  80      0.006133792341
  81      0.221789389074
  82      0.178827314298
  83      0.010202674925
  84     -0.005874734019
  85      0.000129301795
  86      0.221511633548
  87      0.156088154481
  88      0.011821887326
  89     -0.005807437995
  90     -0.000393245579
 Ene=   0.73767044662219E+00
 Spin= Alpha
 Occup=    0.000000
   1      0.000383004579
   2     -0.001041872620
   3      0.006124553169
   4     -0.040644968854
   5     -0.001642820723
   6      0.000002944139
   7     -0.000009255353
   8      0.000094631991
   9     -0.000451831850
  10      0.000610905434
  11     -0.003748339280
  12     -0.000018085028
  13      0.000391661929
  14     -0.000663482730
  15      0.001484543766
  16     -0.002592908040
  17      0.013648405908
  18     -0.012887032474
  19      0.024607516957
  20     -0.123513777372
  21     -0.001815742808
  22     -0.010838964007
  23      0.007423911590
  24      0.000452869447
  25      0.001216121853
  26      0.000205144750
  27      0.001914357450
  28     -0.001315417448
  29      0.001398343363
  30     -0.000875860959
  31     -0.012633900766
  32     -0.060057017945
  33      0.042476890976
  34      0.004062129515
  35      0.009932155901
  36     -0.000158371021
  37      0.000147862338
  38     -0.000147944865
  39      0.000246199200
  40     -0.000628881672
  41     -0.000058936024
  42      0.000013652335
  43      0.000875576812
  44     -0.051020640423
  45     -0.017765439181
  46      0.058723165443
  47     -0.000295722073
  48     -0.298774071601
  49     -0.136304405794
  50      0.030313004407
  51      0.468613343546
  52     -0.019829805021
  53      0.007435922041
  54     -0.002367972149
  55     -0.005336390812
  56      0.009088927219
  57      0.000619790644
  58      0.032453405361
  59      0.122859284842
  60      0.014084807641
  61      0.029388559398
  62     -0.300336406936
  63     -0.026996785820
  64     -0.042585149869
  65      0.481730345046
  66      0.022279463590
  67     -0.000535481024
  68     -0.002592753862
  69      0.002481653476
  70     -0.008337075236
  71      0.048403120153
  72     -0.179174257408
  73      0.011836774804
  74      0.011658182171
  75     -0.002728153823
  76      0.048692232929
  77     -0.202473271445
  78     -0.005760036354
  79     -0.017972889890
  80     -0.004482411261
  81     -0.051948179767
  82      0.155105340179
  83      0.005731364416
  84      0.014567980968
  85     -0.003814432202
  86     -0.052955054512
  87      0.179108744192
  88     -0.013433792491
  89     -0.011707193369
  90     -0.005806940740
 Ene=   0.73767044662219E+00
 Spin= Alpha
 Occup=    0.000000
   1      0.000055871905
   2     -0.000149919914
   3      0.000901519755
   4     -0.007121630252
   5     -0.000216720848
   6      0.000000637836
   7     -0.000001447597
   8      0.000007754415
   9     -0.000080271198
  10      0.000094584353
  11     -0.000311255363
  12      0.000047907195
  13      0.000126290074
  14     -0.000050007941
  15      0.000212974659
  16     -0.000468768063
  17      0.001127294639
  18     -0.004667336466
  19      0.002165099735
  20     -0.010520880954
  21     -0.000093911182
  22     -0.000921900092
  23      0.000583432446
  24      0.000016309141
  25      0.000214700345
  26      0.000025459348
  27      0.000004781553
  28     -0.000272498367
  29     -0.000225044836
  30     -0.000178575266
  31     -0.001072763092
  32     -0.004970797981
  33      0.003590807554
  34     -0.001016048228
  35      0.001179749450
  36     -0.000012018141
  37      0.000014181826
  38     -0.000015079367
  39      0.000019824652
  40     -0.000050250654
  41     -0.000005695572
  42     -0.000000065848
  43      0.000181593795
  44     -0.005421100749
  45      0.003461895456
  46      0.001675811458
  47     -0.003511916196
  48     -0.024708322465
  49     -0.008043871116
  50      0.008432936831
  51      0.038593149969
  52     -0.001566407982
  53      0.000780075710
  54      0.000181608543
  55     -0.000148788586
  56      0.000822926288
  57      0.000160795691
  58      0.001330071261
  59      0.014908776074
  60     -0.002372394927
  61     -0.001757921087
  62     -0.024616466172
  63      0.001556202980
  64      0.003643311939
  65      0.039119013630
  66      0.001781582302
  67     -0.000165646342
  68     -0.000580025357
  69      0.000573306184
  70     -0.000466561470
  71      0.003476710138
  72     -0.020088039002
  73      0.001439986638
  74      0.001228313246
  75     -0.000088593862
  76      0.003161519635
  77     -0.012670921612
  78     -0.000483436660
  79     -0.000887091886
  80     -0.000450438621
  81     -0.005289721662
  82      0.017109520774
  83      0.000412760821
  84      0.001833093717
  85     -0.000162159863
  86     -0.004423988424
  87      0.008052703376
  88     -0.000498147751
  89     -0.000627834097
  90     -0.000540172812
 Ene=   0.96647385677416E+00
 Spin= Alpha
 Occup=    0.000000
   1      0.000046177128
   2     -0.000112650170
   3      0.000791539725
   4     -0.005448791372
   5     -0.000481327839
   6      0.000033955012
   7     -0.000004301080
   8     -0.000228622583
   9      0.001310690963
  10     -0.000132337189
  11     -0.009335760534
  12     -0.000032414034
  13      0.000087888533
  14      0.000089861241
  15     -0.004211999676
  16      0.000304642599
  17      0.030413934678
  18      0.089687962110
  19     -0.008906630285
  20     -0.650369965970
  21     -0.002708191592
  22     -0.002981124284
  23      0.073915802734
  24     -0.001026059971
  25     -0.010778064876
  26     -0.008805748622
  27     -0.039938757199
  28     -0.046947558093
  29      0.006693030802
  30      0.006466189957
  31     -0.037485878452
  32     -0.092793878879
  33      0.480467468728
  34      0.004918803637
  35     -0.071311282369
  36     -0.000612823763
  37     -0.000885533966
  38     -0.000644094068
  39     -0.004780728372
  40     -0.002102837002
  41      0.000927860511
  42      0.000290710161
  43      0.035510443880
  44     -0.453823011266
  45      3.006856803807
  46      0.154257184894
  47      0.121092985831
  48      0.051840486398
  49     -0.954240791618
  50     -1.018645348638
  51     -0.903441643533
  52      0.013129606021
  53      0.009909506937
  54      0.026860672587
  55      0.064311156274
  56      0.007487216335
  57     -0.035275726161
  58      0.449700961927
  59     -2.998008762771
  60     -0.162497710420
  61     -0.121990192621
  62      0.007806858674
  63      1.168473984199
  64      1.003628284642
  65     -0.618781326662
  66     -0.012507389339
  67     -0.002223874661
  68      0.020581694994
  69     -0.066072732393
  70     -0.014669177810
  71      0.334202557989
  72      0.140883764030
  73      0.021880993316
  74     -0.055226236179
  75      0.012011732057
  76     -0.860319332042
  77     -0.539497197534
  78     -0.063956431234
  79     -0.000353263694
  80     -0.011072663062
  81      0.857905004752
  82      0.539924634464
  83      0.064089636050
  84      0.000893002265
  85      0.007882630831
  86     -0.335720376321
  87     -0.140478410914
  88     -0.024592942757
  89      0.055832628623
  90      0.004124348287
 Ene=   0.96647385677417E+00
 Spin= Alpha
 Occup=    0.000000
   1      0.000012351582
   2     -0.000034242357
   3      0.000194893999
   4     -0.001080599962
   5     -0.000334600462
   6     -0.000000200195
   7      0.000000025405
   8      0.000006880873
   9     -0.000083002253
  10      0.000028521055
  11      0.000269404230
  12     -0.000037100769
  13      0.000501780274
  14     -0.000015555599
  15      0.000320723250
  16     -0.000774056144
  17     -0.000860261232
  18     -0.003934112898
  19      0.001478060605
  20      0.019012950833
  21     -0.000095108392
  22     -0.000221105935
  23     -0.002668798710
  24     -0.000076802540
  25      0.000463687752
  26      0.001153658398
  27      0.001436707565
  28      0.001919620222
  29      0.000299127110
  30     -0.000307777909
  31      0.000422819154
  32      0.000895872095
  33     -0.016928049046
  34     -0.000367269850
  35      0.003140796984
  36      0.000020408744
  37      0.000036789766
  38      0.000022854844
  39      0.000187224181
  40      0.000081023522
  41     -0.000038485520
  42     -0.000018228017
  43     -0.001089876568
  44      0.013614999514
  45     -0.087966075255
  46     -0.005985614310
  47     -0.004973390779
  48     -0.001789847251
  49      0.035543067262
  50      0.041890471545
  51      0.027580480679
  52     -0.000416622715
  53     -0.000538842889
  54     -0.000930805143
  55     -0.002522408536
  56     -0.000510880314
  57      0.001000332079
  58     -0.013113904984
  59      0.089732451957
  60      0.005282743719
  61      0.005329015197
  62     -0.000088402831
  63     -0.042275544248
  64     -0.041071133152
  65      0.017367022024
  66      0.000384208776
  67      0.000056072773
  68     -0.000843452691
  69      0.002460577709
  70      0.000655993485
  71     -0.015569638883
  72     -0.007534616702
  73     -0.000933924012
  74      0.002226800535
  75     -0.000409358793
  76      0.030990276741
  77      0.019323302766
  78      0.002519405705
  79      0.000003234236
  80      0.000405770456
  81     -0.031354026555
  82     -0.019206702827
  83     -0.002477252272
  84     -0.000045295002
  85     -0.000213038945
  86      0.015730814108
  87      0.007306556005
  88      0.000904201314
  89     -0.002164534607
  90     -0.000177653280
 Ene=   0.96799503729864E+00
 Spin= Alpha
 Occup=    0.000000
   1      0.000026467213
   2     -0.000056733578
   3      0.000483021634
   4     -0.022834660428
   5      0.001734358183
   6     -0.000058337595
   7      0.000007543722
   8      0.000377821978