[Molden Format]
[Title]
generated by TRESC, imaginary part1 of MOs of job Ni0-C2H4
 
[Atoms] AU
Ni   1  28    2.0327243480    6.6651129323   -0.4637853482
 C   2   6    4.4866582262    4.9116344944    1.3008835560
 C   3   6    4.8771137450    4.8741236186   -1.3947805326
 H   4   1    5.7310700770    6.0706468704    2.4997637439
 H   5   1    3.8369470533    3.1858198160    2.2645095603
 H   6   1    4.5308414173    3.1179949920   -2.4558991994
 H   7   1    6.4130479072    6.0088908466   -2.2212746715
[GTO]
  1 0
 s  6 1.0
   105040.0623800000        0.0035171970
    13968.3586480000        0.0173391066
     2940.9041687000        0.0741624358
      786.1020253800        0.2530654570
      245.2580996100        0.5385985895
       81.4764798070        0.4440458912
 s  3 1.0
      156.2637962600       -0.1055600427
       18.1782549770        0.6426665159
        7.4444231636        0.4714885202
 s  3 1.0
       12.9345647400       -0.2291772139
        2.1221056648        0.7395224896
        0.8740880520        0.4584156000
 s  1 1.0
        0.1104545011        1.0000000000
 s  1 1.0
        0.0401880342        1.0000000000
 p  6 1.0
     2356.4518106000       -0.0000855328
      513.4513882300       -0.0005420978
      158.2013335400       -0.0024494945
       57.5500069520       -0.0071523316
       22.5659922940       -0.0118148309
        9.0452780395       -0.0071547652
 p  5 1.0
     1045.8514156000        0.0092908253
      234.8058471900        0.0670834485
       72.4328268820        0.2652923948
       25.6138643320        0.5353100645
        9.4079524620        0.3595935862
 p  1 1.0
        6.9922696496        1.0000000000
 p  3 1.0
        4.8001460600        0.3535617403
        1.8423116558        0.5937621194
        0.6865826193        0.2491809881
 p  1 1.0
        0.1465880000        1.0000000000
 d  4 1.0
       47.9675640250        0.0288745010
       13.3221273820        0.1553500110
        4.4560102246        0.3821354899
        1.4827299619        0.4857955113
 d  1 1.0
        0.4362198809        1.0000000000
 d  1 1.0
        0.1200000000        1.0000000000
 f  1 1.0
        2.1740000000        1.0000000000
 
  2 0
 s  5 1.0
     1231.7975026000        0.0058423196
      185.5974766200        0.0415113222
       42.0875016200        0.1832849990
       11.6300369400        0.4683526005
        3.5840894779        0.4430601820
 s  1 1.0
        0.4029351893        1.0000000000
 s  1 1.0
        0.1309419451        1.0000000000
 p  3 1.0
        9.4821246358        0.0381720490
        2.0121097169        0.2099973699
        0.5481253660        0.5104097902
 p  1 1.0
        0.1527756940        1.0000000000
 d  1 1.0
        0.8000000000        1.0000000000
 
  3 0
 s  5 1.0
     1231.7975026000        0.0058423196
      185.5974766200        0.0415113222
       42.0875016200        0.1832849990
       11.6300369400        0.4683526005
        3.5840894779        0.4430601820
 s  1 1.0
        0.4029351893        1.0000000000
 s  1 1.0
        0.1309419451        1.0000000000
 p  3 1.0
        9.4821246358        0.0381720490
        2.0121097169        0.2099973699
        0.5481253660        0.5104097902
 p  1 1.0
        0.1527756940        1.0000000000
 d  1 1.0
        0.8000000000        1.0000000000
 
  4 0
 s  3 1.0
       13.0107010000        0.0196821580
        1.9622572000        0.1379652400
        0.4445379600        0.4783193500
 s  1 1.0
        0.1219496200        1.0000000000
 p  1 1.0
        0.8000000000        1.0000000000
 
  5 0
 s  3 1.0
       13.0107010000        0.0196821580
        1.9622572000        0.1379652400
        0.4445379600        0.4783193500
 s  1 1.0
        0.1219496200        1.0000000000
 p  1 1.0
        0.8000000000        1.0000000000
 
  6 0
 s  3 1.0
       13.0107010000        0.0196821580
        1.9622572000        0.1379652400
        0.4445379600        0.4783193500
 s  1 1.0
        0.1219496200        1.0000000000
 p  1 1.0
        0.8000000000        1.0000000000
 
  7 0
 s  3 1.0
       13.0107010000        0.0196821580
        1.9622572000        0.1379652400
        0.4445379600        0.4783193500
 s  1 1.0
        0.1219496200        1.0000000000
 p  1 1.0
        0.8000000000        1.0000000000
 
[5D]
[7F]
[9G]
[MO]
 Ene=  -0.30263417268252E+03
 Spin= Alpha
 Occup=    1.000000
   1     -0.633231860442
   2     -0.012954707978
   3      0.003112042198
   4     -0.004278062446
   5      0.000570511875
   6     -0.000001337498
   7      0.000000894023
   8     -0.000000206365
   9      0.000038525093
  10     -0.000025733176
  11      0.000006036165
  12     -0.000137274505
  13      0.000091912249
  14     -0.000021494523
  15      0.000182940806
  16     -0.000122453132
  17      0.000028612330
  18     -0.002117530525
  19      0.001416340448
  20     -0.000327635606
  21     -0.000029531050
  22      0.000012942949
  23     -0.000010628495
  24      0.000029439361
  25     -0.000070613582
  26      0.000112622874
  27     -0.000048776373
  28      0.000039731806
  29     -0.000110354487
  30      0.000264646524
  31      0.000164320367
  32     -0.000092985515
  33      0.000095992123
  34     -0.000275694682
  35      0.000658230823
  36      0.000000388655
  37      0.000001154337
  38     -0.000000443603
  39      0.000000050883
  40      0.000003204341
  41      0.000003181760
  42      0.000016936399
  43     -0.000015268258
  44     -0.000205161294
  45      0.002422668378
  46     -0.000184835192
  47      0.000126887400
  48     -0.000066171747
  49     -0.000801963866
  50      0.000554291592
  51     -0.000383731579
  52     -0.000049102185
  53      0.000114440046
  54     -0.000075638928
  55      0.000028456476
  56     -0.000089159787
  57     -0.000015520473
  58     -0.000202461897
  59      0.002433068499
  60     -0.000198129640
  61      0.000128376921
  62      0.000006774176
  63     -0.000877317487
  64      0.000570478874
  65      0.000117800679
  66     -0.000098308544
  67     -0.000060937728
  68      0.000044114623
  69      0.000052895629
  70     -0.000109629024
  71     -0.000145335317
  72     -0.000293086332
  73      0.000032912459
  74     -0.000030143272
  75      0.000033081516
  76     -0.000146799770
  77     -0.000295071869
  78      0.000038296409
  79     -0.000021958066
  80      0.000033843565
  81     -0.000145515927
  82     -0.000293070180
  83      0.000046213350
  84     -0.000023272622
  85     -0.000020502909
  86     -0.000147787663
  87     -0.000296416767
  88      0.000040444462
  89     -0.000030465042
  90     -0.000021098190
 Ene=  -0.30263417268252E+03
 Spin= Alpha
 Occup=    0.000000
   1     -0.000006450242
   2     -0.000000131957
   3      0.000000031635
   4     -0.000000042935
   5      0.000000005803
   6     -0.000000000030
   7      0.000000000213
   8      0.000000000958
   9      0.000000001081
  10     -0.000000008669
  11     -0.000000039557
  12     -0.000000001450
  13      0.000000006120
  14      0.000000022457
  15      0.000000001895
  16     -0.000000001986
  17     -0.000000003355
  18     -0.000000021655
  19      0.000000014327
  20      0.000000000961
  21     -0.000000000712
  22     -0.000000001513
  23      0.000000009919
  24      0.000000000102
  25     -0.000000000932
  26      0.000000001483
  27      0.000000000972
  28     -0.000000004131
  29     -0.000000001066
  30      0.000000002765
  31      0.000000001994
  32      0.000000000328
  33      0.000000001517
  34     -0.000000002979
  35      0.000000006749
  36     -0.000000004505
  37      0.000000000354
  38     -0.000000001880
  39     -0.000000006068
  40     -0.000000005603
  41      0.000000000569
  42      0.000000001219
  43     -0.000000000219
  44     -0.000000001020
  45      0.000000012017
  46     -0.000000001225
  47      0.000000001524
  48      0.000000000599
  49     -0.000000006068
  50      0.000000003213
  51     -0.000000000028
  52     -0.000000000128
  53      0.000000001298
  54     -0.000000000498
  55      0.000000000371
  56     -0.000000000240
  57     -0.000000000070
  58     -0.000000003102
  59      0.000000036769
  60     -0.000000002518
  61      0.000000001407
  62      0.000000001098
  63     -0.000000011885
  64      0.000000007694
  65      0.000000004062
  66     -0.000000001223
  67     -0.000000000314
  68      0.000000000267
  69      0.000000000726
  70     -0.000000001494
  71     -0.000000001102
  72     -0.000000002381
  73      0.000000000506
  74      0.000000000087
  75      0.000000000462
  76     -0.000000000858
  77     -0.000000002354
  78      0.000000000059
  79     -0.000000000067
  80      0.000000000134
  81     -0.000000001909
  82     -0.000000003847
  83      0.000000000858
  84     -0.000000000212
  85     -0.000000000227
  86     -0.000000002006
  87     -0.000000003449
  88      0.000000000382
  89     -0.000000000573
  90     -0.000000000161
 Ene=  -0.36398175981574E+02
 Spin= Alpha
 Occup=    0.000000
   1      0.000004182158
   2     -0.000014087232
   3     -0.000000272902
   4      0.000000219805
   5     -0.000000032993
   6      0.000000000337
   7      0.000000023137
   8      0.000000079902
   9     -0.000000013499
  10     -0.000000965850
  11     -0.000003332560
  12      0.000000004552
  13      0.000000148797
  14      0.000000546363
  15     -0.000000007975
  16     -0.000000038897
  17     -0.000000161854
  18      0.000000098828
  19     -0.000000058265
  20      0.000000086062
  21     -0.000000000850
  22     -0.000000008967
  23     -0.000000068199
  24     -0.000000002632
  25      0.000000009723
  26     -0.000000004353
  27      0.000000006503
  28      0.000000030892
  29      0.000000005775
  30     -0.000000014864
  31     -0.000000000414
  32      0.000000031692
  33     -0.000000034969
  34      0.000000012949
  35     -0.000000027261
  36      0.000000026004
  37     -0.000000002201
  38      0.000000010525
  39      0.000000032676
  40      0.000000029927
  41     -0.000000003065
  42     -0.000000006305
  43      0.000000001774
  44      0.000000020174
  45     -0.000000193428
  46      0.000000004130
  47     -0.000000008232
  48     -0.000000007620
  49      0.000000060537
  50     -0.000000045896
  51      0.000000024975
  52      0.000000003436
  53     -0.000000006050
  54      0.000000001260
  55     -0.000000000190
  56      0.000000002328
  57     -0.000000000393
  58     -0.000000000571
  59     -0.000000047828
  60      0.000000014887
  61     -0.000000007220
  62     -0.000000009406
  63      0.000000017656
  64     -0.000000012943
  65     -0.000000005178
  66      0.000000003321
  67      0.000000002953
  68     -0.000000001964
  69     -0.000000003822
  70      0.000000006062
  71      0.000000017618
  72      0.000000018372
  73     -0.000000004134
  74      0.000000001419
  75     -0.000000002714
  76      0.000000009813
  77      0.000000014155
  78     -0.000000001896
  79      0.000000001016
  80      0.000000000427
  81      0.000000000114
  82      0.000000018305
  83     -0.000000003015
  84      0.000000000759
  85      0.000000002118
  86      0.000000001692
  87      0.000000011624
  88     -0.000000000001
  89      0.000000000583
  90      0.000000001119
 Ene=  -0.36398175981574E+02
 Spin= Alpha
 Occup=    1.000000
   1     -0.103580585883
   2      0.348902419951
   3      0.006771793553
   4     -0.005574434578
   5      0.000804748167
   6      0.000000136532
   7     -0.000000267118
   8      0.000000065129
   9     -0.000025084664
  10      0.000024139291
  11     -0.000005597444
  12     -0.000135923431
  13      0.000090418344
  14     -0.000021389958
  15      0.000209330583
  16     -0.000140167704
  17      0.000032727151
  18     -0.002657317438
  19      0.001777275468
  20     -0.000411378999
  21     -0.000013265771
  22      0.000014666796
  23     -0.000020995706
  24      0.000062748445
  25     -0.000150476780
  26      0.000129061116
  27     -0.000058754518
  28      0.000050693276
  29     -0.000142114781
  30      0.000340901795
  31      0.000209723875
  32     -0.000118359687
  33      0.000121748450
  34     -0.000349426154
  35      0.000834098292
  36      0.000000221493
  37      0.000000659011
  38     -0.000000249898
  39      0.000000176250
  40      0.000003325307
  41      0.000003112819
  42      0.000017763021
  43     -0.000018374580
  44     -0.000244566125
  45      0.003064923747
  46     -0.000231155994
  47      0.000158617867
  48     -0.000081885394
  49     -0.001006065639
  50      0.000694442454
  51     -0.000466831210
  52     -0.000059284346
  53      0.000133329746
  54     -0.000087347359
  55      0.000030992952
  56     -0.000098717670
  57     -0.000018662705
  58     -0.000241035681
  59      0.003076666713
  60     -0.000247301179
  61      0.000160363372
  62      0.000007658362
  63     -0.001096301748
  64      0.000713574548
  65      0.000133341820
  66     -0.000116371087
  67     -0.000070613058
  68      0.000051896567
  69      0.000059304238
  70     -0.000122279581
  71     -0.000185838735
  72     -0.000384003641
  73      0.000042456372
  74     -0.000034483713
  75      0.000039361588
  76     -0.000187513495
  77     -0.000386392795
  78      0.000045632948
  79     -0.000029661576
  80      0.000039862292
  81     -0.000186084949
  82     -0.000384181248
  83      0.000054971619
  84     -0.000031282479
  85     -0.000023893479
  86     -0.000188721416
  87     -0.000387914749
  88      0.000051224793
  89     -0.000034738008
  90     -0.000024155290
 Ene=  -0.31799796042211E+02
 Spin= Alpha
 Occup=    0.333977
   1      0.000001401742
   2     -0.000010499882
   3     -0.000086098597
   4      0.000778821532
   5      0.000239931675
   6      0.000954363694
   7     -0.001010665660
   8      0.007368433597
   9     -0.039947671837
  10      0.042303531984
  11     -0.308429424341
  12      0.000575595295
  13     -0.000601886519
  14      0.004324230435
  15     -0.000866308169
  16      0.000906976604
  17     -0.006420437996
  18      0.000593986673
  19     -0.000571107275
  20      0.002660245315
  21     -0.000001787456
  22     -0.000018569869
  23      0.000012607920
  24     -0.000001972430
  25      0.000009558527
  26     -0.000002079686
  27      0.000061827463
  28     -0.000042859874
  29      0.000007765378
  30     -0.000033623781
  31      0.000169720648
  32      0.001022952536
  33     -0.000707311329
  34     -0.000003918460
  35     -0.000180104666
  36     -0.000017215495
  37      0.000012336341
  38     -0.000006427078
  39      0.000003873635
  40     -0.000012228784
  41     -0.000001246258
  42      0.000001135131
  43     -0.000015587258
  44      0.000351188126
  45     -0.004335441371
  46      0.000002995066
  47     -0.000001778332
  48      0.000013822421
  49      0.001165758778
  50     -0.000845238524
  51      0.000861697632
  52      0.000052943042
  53      0.000004461963
  54     -0.000011560366
  55      0.000005006971
  56     -0.000010577342
  57      0.000027119899
  58     -0.000404229897
  59      0.003091725593
  60      0.000111378613
  61     -0.000072406749
  62      0.000007807008
  63     -0.000863422690
  64      0.000529370287
  65      0.000339099488
  66     -0.000009498991
  67      0.000040730274
  68     -0.000023687024
  69     -0.000007980071
  70      0.000012689486
  71      0.000295741227
  72      0.000086733445
  73     -0.000034689546
  74      0.000041936591
  75     -0.000002798272
  76      0.000288738254
  77      0.000088055611
  78     -0.000052986700
  79      0.000017185834
  80     -0.000004976926
  81     -0.000195540143
  82     -0.000125389582
  83      0.000042903803
  84     -0.000009122127
  85      0.000016951782
  86     -0.000190544477
  87     -0.000125889625
  88      0.000025718634
  89     -0.000037360974
  90      0.000014928722
 Ene=  -0.31799796042211E+02
 Spin= Alpha
 Occup=    0.666023
   1     -0.000004548875
   2      0.000041725398
   3      0.000393899829
   4     -0.003627755591
   5     -0.001090075014
   6     -0.004441580857
   7      0.012434117899
   8      0.000221317093
   9      0.185892860194
  10     -0.520497742645
  11     -0.009266738723
  12     -0.002626627736
  13      0.007421186037
  14      0.000125651995
  15      0.004097713339
  16     -0.010849697843
  17     -0.000158990812
  18     -0.003709428347
  19      0.003984204605
  20     -0.000221147949
  21     -0.000012891976
  22      0.000007080111
  23     -0.000004331330
  24      0.000040307976
  25     -0.000043921396
  26      0.000079558813
  27     -0.000032036146
  28      0.000018236630
  29     -0.000120797717
  30      0.000161967756
  31      0.000508245017
  32     -0.000031225669
  33      0.000131945994
  34     -0.000225807557
  35      0.001528856760
  36     -0.000011048477
  37     -0.000020401030
  38      0.000004403183
  39      0.000003551994
  40     -0.000002309358
  41     -0.000012900205
  42      0.000008963293
  43     -0.000029202667
  44      0.000173656129
  45      0.002320986206
  46     -0.000232846277
  47      0.000218398785
  48     -0.000088443788
  49     -0.001087933031
  50      0.000316861888
  51     -0.000543409083
  52     -0.000047559655
  53      0.000063831135
  54     -0.000041231491
  55      0.000031806873
  56      0.000033901865
  57     -0.000022645168
  58      0.000063298835
  59      0.003451875872
  60     -0.000231521494
  61      0.000208273688
  62      0.000014008647
  63     -0.001528182215
  64      0.000535485587
  65      0.000319615206
  66     -0.000078745296
  67     -0.000010705652
  68      0.000041484590
  69      0.000038670546
  70      0.000026846856
  71     -0.000039543666
  72      0.000064444728
  73      0.000057162256
  74     -0.000012987631
  75      0.000024983162
  76     -0.000345054931
  77      0.000136731086
  78     -0.000019924152
  79      0.000025822039
  80      0.000016038576
  81     -0.000419067714
  82      0.000101687987
  83      0.000000316303
  84      0.000020225120
  85     -0.000018542708
  86     -0.000113414898
  87      0.000027149968
  88      0.000070895011
  89     -0.000024514018
  90     -0.000003981929
 Ene=  -0.31154629023659E+02
 Spin= Alpha
 Occup=    0.394448
   1     -0.000011611093
   2      0.000063417071
   3      0.000324655298
   4     -0.003000179918
   5     -0.000946954196
   6     -0.010843073899
   7      0.005420235931
   8     -0.003906546209
   9      0.454141544694
  10     -0.227009623595
  11      0.163618572074
  12      0.004768287911
  13     -0.002416174778
  14      0.001729562146
  15      0.007870987022
  16     -0.003971033658
  17      0.002808306181
  18     -0.003722648947
  19      0.002297070156
  20     -0.001157520246
  21     -0.000003840015
  22      0.000006996166
  23     -0.000007737240
  24      0.000011246708
  25     -0.000037398081
  26      0.000055139227
  27     -0.000035244327
  28      0.000027982626
  29     -0.000046020593
  30      0.000134026344
  31      0.000332172292
  32     -0.000417462857
  33      0.000316645144
  34     -0.000506971598
  35      0.001104561916
  36     -0.000003254372
  37     -0.000023261352
  38      0.000018138275
  39      0.000004136307
  40     -0.000001866394
  41      0.000002964479
  42     -0.000002159667
  43     -0.000014602092
  44      0.000022354829
  45      0.003229192000
  46     -0.000191547003
  47      0.000121926863
  48     -0.000064724493
  49     -0.001036224037
  50      0.000802631930
  51     -0.000678035207
  52     -0.000050999407
  53      0.000033606815
  54     -0.000010576826
  55     -0.000022995802
  56      0.000029934765
  57     -0.000024273777
  58      0.000193418903
  59      0.001586254732
  60     -0.000226298127
  61      0.000138866337
  62     -0.000001231941
  63     -0.000691103348
  64      0.000506723269
  65      0.000152328818
  66     -0.000051856823
  67     -0.000025349536
  68      0.000022882180
  69     -0.000012878763
  70      0.000019124166
  71     -0.000273870136
  72      0.000061587405
  73      0.000015480139
  74     -0.000013654891
  75      0.000015020571
  76     -0.000227026708
  77      0.000049450709
  78      0.000025877523
  79     -0.000022238219
  80      0.000016423367
  81     -0.000119071639
  82      0.000095089832
  83      0.000009238431
  84     -0.000017394065
  85     -0.000014411480
  86     -0.000163893272
  87      0.000109183456
  88      0.000004953949
  89      0.000004241987
  90     -0.000014570736
 Ene=  -0.31154629023659E+02
 Spin= Alpha
 Occup=    0.605552
   1      0.000000182885
   2     -0.000002024443
   3     -0.000018983561
   4      0.000188351781
   5      0.000053872150
   6      0.001350593180
   7     -0.001490551211
   8     -0.009385166126
   9     -0.056564805047
  10      0.062431896398
  11      0.393081192485
  12     -0.000608276025
  13      0.000643927956
  14      0.004169642243
  15     -0.000977785792
  16      0.001061822053
  17      0.006695818104
  18      0.000504502203
  19     -0.000298015357
  20     -0.002415380756
  21      0.000004317174
  22      0.000015113069
  23     -0.000009771801
  24     -0.000005451979
  25      0.000002772967
  26     -0.000016134583
  27     -0.000044731880
  28      0.000030730377
  29      0.000014681302
  30     -0.000010825477
  31     -0.000284893845
  32     -0.000932896251
  33      0.000627728075
  34      0.000121579860
  35     -0.000192976070
  36      0.000023704291
  37     -0.000008480028
  38      0.000004004572
  39     -0.000005208585
  40      0.000012823798
  41      0.000003191730
  42     -0.000002815420
  43      0.000022185065
  44     -0.000366999695
  45      0.003407699623
  46      0.000063766819
  47     -0.000048916333
  48      0.000011064263
  49     -0.000838846729
  50      0.000649257674
  51     -0.000654402869
  52     -0.000034428156
  53     -0.000024210579
  54      0.000022432702
  55     -0.000006506154
  56      0.000008684746
  57     -0.000020114812
  58      0.000355488006
  59     -0.003705300199
  60     -0.000045905969
  61      0.000024952241
  62     -0.000009488340
  63      0.001144706023
  64     -0.000674074169
  65     -0.000388267151
  66      0.000023706904
  67     -0.000035281606
  68      0.000015481813
  69      0.000008072381
  70     -0.000022570357
  71     -0.000238330599
  72     -0.000099697540
  73      0.000024789777
  74     -0.000036234290
  75     -0.000003533283
  76     -0.000206707009
  77     -0.000108135091
  78      0.000048934801
  79     -0.000016094739
  80     -0.000000434138
  81      0.000261340968
  82      0.000092677886
  83     -0.000042900650
  84      0.000009698066
  85     -0.000012488804
  86      0.000231181024
  87      0.000100154965
  88     -0.000033768182
  89      0.000038184208
  90     -0.000011921309
 Ene=  -0.31139910237244E+02
 Spin= Alpha
 Occup=    0.055519
   1     -0.000000127579
   2      0.000000367576
   3     -0.000000881750
   4      0.000011966259
   5      0.000002357697
   6      0.001105854444
   7      0.000959277990
   8     -0.002696266224
   9     -0.046319606118
  10     -0.040181667994
  11      0.112929624543
  12     -0.000509441922
  13     -0.000436174510
  14      0.001265280218
  15     -0.000779056776
  16     -0.000670799229
  17      0.001914975178
  18      0.000195901775
  19      0.000101867880
  20     -0.000704444877
  21      0.000001253293
  22      0.000004937853
  23     -0.000002657706
  24      0.000001831038
  25      0.000001640082
  26     -0.000003983842
  27     -0.000014330602
  28      0.000008736891
  29     -0.000003193755
  30     -0.000004101389
  31     -0.000077111107
  32     -0.000269275049
  33      0.000190512796
  34      0.000080208130
  35     -0.000018256812
  36      0.000006733791
  37     -0.000003772825
  38      0.000000051129
  39     -0.000001587084
  40      0.000004211875
  41     -0.000002247431
  42     -0.000000289236
  43      0.000006257626
  44     -0.000106004109
  45      0.001032970998
  46      0.000019685688
  47     -0.000006608093
  48      0.000002784936
  49     -0.000286590466
  50      0.000156136392
  51     -0.000202561577
  52     -0.000010780729
  53     -0.000006734782
  54      0.000005368109
  55      0.000003646888
  56      0.000005605275
  57     -0.000006196947
  58      0.000105533599
  59     -0.001050223023
  60     -0.000012697221
  61      0.000015112867
  62     -0.000002297990
  63      0.000293771353
  64     -0.000231726374
  65     -0.000113840047
  66      0.000006364374
  67     -0.000008895393
  68      0.000006738057
  69      0.000007629973
  70     -0.000004107846
  71     -0.000051217379
  72     -0.000033838733
  73      0.000014034490
  74     -0.000012217736
  75      0.000000078342
  76     -0.000084844757
  77     -0.000024630370
  78      0.000010563560
  79      0.000000580519
  80     -0.000000517105
  81      0.000052249160
  82      0.000033901265
  83     -0.000016281983
  84      0.000008090403
  85     -0.000004586999
  86      0.000086164173
  87      0.000023831180
  88     -0.000002942698
  89      0.000009525663
  90     -0.000002694898
 Ene=  -0.31139910237244E+02
 Spin= Alpha
 Occup=    0.944481
   1     -0.000000765843
   2      0.000004629299
   3      0.000027264121
   4     -0.000253811867
   5     -0.000081922346
   6     -0.010723054703
   7     -0.014255411876
   8     -0.000704687422
   9      0.449154680459
  10      0.597120770487
  11      0.029518845803
  12      0.004895979279
  13      0.006482715859
  14      0.000312711017
  15      0.007528970503
  16      0.009969612955
  17      0.000491147853
  18     -0.001490773646
  19     -0.001543027218
  20     -0.000029692278
  21     -0.000001314815
  22     -0.000005879585
  23     -0.000002889865
  24     -0.000035034959
  25     -0.000018500427
  26      0.000006871886
  27      0.000011154873
  28      0.000005737991
  29      0.000071344658
  30      0.000043758579
  31      0.000041584320
  32     -0.000035319672
  33     -0.000072745656
  34     -0.000637071333
  35     -0.000143490153
  36      0.000000906069
  37      0.000009321773
  38      0.000016847325
  39      0.000004417706
  40     -0.000005193917
  41      0.000035880456
  42     -0.000006543120
  43     -0.000003036028
  44      0.000032194970
  45     -0.000022004129
  46     -0.000064143725
  47     -0.000052165873
  48     -0.000011481748
  49      0.000310616328
  50      0.000498269524
  51      0.000038127896
  52      0.000000055590
  53      0.000006431167
  54      0.000008726152
  55     -0.000067237448
  56     -0.000027476087
  57     -0.000000357527
  58     -0.000011832048
  59      0.000422420397
  60     -0.000057619772
  61     -0.000057219069
  62     -0.000004594051
  63      0.000166825781
  64      0.000586230354
  65      0.000084280713
  66     -0.000009182719
  67     -0.000018193185
  68     -0.000021029354
  69     -0.000063103255
  70     -0.000021740272
  71     -0.000246760641
  72      0.000079026566
  73     -0.000075361129
  74      0.000019205190
  75     -0.000008611508
  76      0.000243174941
  77     -0.000054430802
  78      0.000042732762
  79     -0.000062980148
  80      0.000008356494
  81      0.000214163355
  82     -0.000064408900
  83      0.000049163632
  84     -0.000064371310
  85      0.000008485055
  86     -0.000273690467
  87      0.000075913975
  88     -0.000073017229
  89      0.000015020794
  90     -0.000011135886
 Ene=  -0.10224001373284E+02
 Spin= Alpha
 Occup=    0.000010
   1     -0.000000061780
   2      0.000000127483
   3     -0.000001170293
   4     -0.000017170559
   5      0.000002190947
   6     -0.000000002376
   7      0.000000002253
   8     -0.000000008578
   9     -0.000000015247
  10      0.000000007982
  11      0.000000008687
  12      0.000000300754
  13     -0.000000213694
  14     -0.000000279392
  15     -0.000000687551
  16      0.000000402076
  17      0.000000249717
  18     -0.000003232358
  19      0.000002792224
  20     -0.000008155462
  21      0.000000239510
  22     -0.000000289803
  23      0.000000274524
  24     -0.000000288873
  25      0.000000813568
  26     -0.000000876043
  27      0.000001205126
  28     -0.000000946450
  29      0.000001201003
  30     -0.000003053236
  31     -0.000002069703
  32     -0.000002669923
  33      0.000001908678
  34      0.000000988308
  35     -0.000001705249
  36     -0.000000104729
  37      0.000000001434
  38     -0.000000002982
  39      0.000000072018
  40     -0.000000204963
  41     -0.000000073201
  42     -0.000000322069
  43     -0.002285807364
  44     -0.000111815002
  45      0.000102505728
  46      0.000000105920
  47      0.000000269096
  48     -0.000003582031
  49     -0.000005321477
  50      0.000004174659
  51     -0.000010916213
  52     -0.000000593279
  53     -0.000001582994
  54      0.000000833229
  55      0.000001514329
  56     -0.000003262603
  57     -0.000754910567
  58     -0.000031237374
  59     -0.000008454525
  60     -0.000000183756
  61     -0.000000579837
  62      0.000007083987
  63      0.000000358952
  64      0.000000779830
  65     -0.000010217827
  66      0.000003280538
  67     -0.000000080093
  68     -0.000000355158
  69      0.000000217261
  70     -0.000000523943
  71      0.000012566704
  72     -0.000018309955
  73     -0.000003460197
  74     -0.000004280561
  75     -0.000002201230
  76      0.000012459642
  77     -0.000018462913
  78      0.000002637237
  79      0.000005008592
  80     -0.000001559389
  81      0.000004759590
  82     -0.000004862017
  83      0.000000838354
  84      0.000001180446
  85      0.000000111576
  86      0.000004775193
  87     -0.000005002357
  88     -0.000000769064
  89     -0.000001262954
  90     -0.000000006247
 Ene=  -0.10224001373284E+02
 Spin= Alpha
 Occup=    0.999990
   1     -0.000021413757
   2      0.000043713619
   3     -0.000409995914
   4     -0.006059139270
   5      0.000773688747
   6     -0.000000809591
   7      0.000000671305
   8     -0.000001759335