[Molden Format]
[Title]
generated by TRESC, real part2 of MOs of job FeCO4
 
[Atoms] AU
Fe   1  26   -0.0540389823    0.5191872865    1.0066466406
 O   2   8    0.2117534346    0.3334081356    6.6028244914
 C   3   6    0.1037850741    0.4413681813    4.4353204988
 C   4   6   -0.1488590074    0.1539081662   -2.4057183154
 O   5   8   -0.2001917131   -0.1354255122   -4.5586307888
 C   6   6   -3.2515199836    1.5320722906    1.0822035548
 O   7   8   -5.2145614824    2.4961101455    1.1140656578
 C   8   6    2.7435656063    2.3618413346    0.8253578566
 O   9   8    4.3670403525    3.8224610068    0.7033934295
[GTO]
  1 0
 s  6 1.0
    60923.6406430000        0.0045980778
     9147.8893982000        0.0193220084
     2081.3505927000        0.0775531983
      587.5597706700        0.2480208186
      191.0904399000        0.4675986791
       65.7327301100        0.3373548125
 s  1 1.0
      127.2589192800        1.0000000000
 s  1 1.0
       14.8309130100        1.0000000000
 s  1 1.0
        6.0653307400        1.0000000000
 s  1 1.0
       10.4499437100        1.0000000000
 s  1 1.0
        1.7245228000        1.0000000000
 s  1 1.0
        0.7177217700        1.0000000000
 s  1 1.0
        0.0914498300        1.0000000000
 s  1 1.0
        0.0337066900        1.0000000000
 p  5 1.0
      773.4375099500        0.0106099056
      182.1514971400        0.0713199466
       57.5472727600        0.2648513978
       20.6149889400        0.5090783315
        7.6348557900        0.3293226861
 p  1 1.0
        3.8719328000        1.0000000000
 p  1 1.0
        1.4924724100        1.0000000000
 p  1 1.0
        0.5606128500        1.0000000000
 d  4 1.0
       38.9681334200        0.0334987321
       10.8000670800        0.1771399682
        3.6136458000        0.4404450273
        1.2129967900        0.5720563253
 d  1 1.0
        0.3652439300        1.0000000000
 p  1 1.0
        0.1349150000        1.0000000000
 f  1 1.0
        1.5980000000        1.0000000000
 
  2 0
 s  5 1.0
     2266.1767785000        0.0060711540
      340.8701019100        0.0417308970
       77.3631351700        0.1850777598
       21.4796449400        0.4668774046
        6.6589433100        0.4435718061
 s  1 1.0
        0.8097597600        1.0000000000
 s  1 1.0
        0.2553077200        1.0000000000
 p  3 1.0
       17.7215043200        0.0628680198
        3.8635505400        0.3334973703
        1.0480920900        0.7412421661
 p  1 1.0
        0.2764154400        1.0000000000
 d  1 1.0
        1.2000000000        1.0000000000
 
  3 0
 s  5 1.0
     1238.4016938000        0.0059599745
      186.2900499200        0.0422621111
       42.2511763500        0.1866575214
       11.6765579300        0.4675815865
        3.5930506500        0.4422897287
 s  1 1.0
        0.4024514700        1.0000000000
 s  1 1.0
        0.1309018300        1.0000000000
 p  3 1.0
        9.4680970600        0.0570294585
        2.0103545100        0.3130471495
        0.5477100500        0.7605135301
 p  1 1.0
        0.1526861400        1.0000000000
 d  1 1.0
        0.8000000000        1.0000000000
 
  4 0
 s  5 1.0
     1238.4016938000        0.0059599745
      186.2900499200        0.0422621111
       42.2511763500        0.1866575214
       11.6765579300        0.4675815865
        3.5930506500        0.4422897287
 s  1 1.0
        0.4024514700        1.0000000000
 s  1 1.0
        0.1309018300        1.0000000000
 p  3 1.0
        9.4680970600        0.0570294585
        2.0103545100        0.3130471495
        0.5477100500        0.7605135301
 p  1 1.0
        0.1526861400        1.0000000000
 d  1 1.0
        0.8000000000        1.0000000000
 
  5 0
 s  5 1.0
     2266.1767785000        0.0060711540
      340.8701019100        0.0417308970
       77.3631351700        0.1850777598
       21.4796449400        0.4668774046
        6.6589433100        0.4435718061
 s  1 1.0
        0.8097597600        1.0000000000
 s  1 1.0
        0.2553077200        1.0000000000
 p  3 1.0
       17.7215043200        0.0628680198
        3.8635505400        0.3334973703
        1.0480920900        0.7412421661
 p  1 1.0
        0.2764154400        1.0000000000
 d  1 1.0
        1.2000000000        1.0000000000
 
  6 0
 s  5 1.0
     1238.4016938000        0.0059599745
      186.2900499200        0.0422621111
       42.2511763500        0.1866575214
       11.6765579300        0.4675815865
        3.5930506500        0.4422897287
 s  1 1.0
        0.4024514700        1.0000000000
 s  1 1.0
        0.1309018300        1.0000000000
 p  3 1.0
        9.4680970600        0.0570294585
        2.0103545100        0.3130471495
        0.5477100500        0.7605135301
 p  1 1.0
        0.1526861400        1.0000000000
 d  1 1.0
        0.8000000000        1.0000000000
 
  7 0
 s  5 1.0
     2266.1767785000        0.0060711540
      340.8701019100        0.0417308970
       77.3631351700        0.1850777598
       21.4796449400        0.4668774046
        6.6589433100        0.4435718061
 s  1 1.0
        0.8097597600        1.0000000000
 s  1 1.0
        0.2553077200        1.0000000000
 p  3 1.0
       17.7215043200        0.0628680198
        3.8635505400        0.3334973703
        1.0480920900        0.7412421661
 p  1 1.0
        0.2764154400        1.0000000000
 d  1 1.0
        1.2000000000        1.0000000000
 
  8 0
 s  5 1.0
     1238.4016938000        0.0059599745
      186.2900499200        0.0422621111
       42.2511763500        0.1866575214
       11.6765579300        0.4675815865
        3.5930506500        0.4422897287
 s  1 1.0
        0.4024514700        1.0000000000
 s  1 1.0
        0.1309018300        1.0000000000
 p  3 1.0
        9.4680970600        0.0570294585
        2.0103545100        0.3130471495
        0.5477100500        0.7605135301
 p  1 1.0
        0.1526861400        1.0000000000
 d  1 1.0
        0.8000000000        1.0000000000
 
  9 0
 s  5 1.0
     2266.1767785000        0.0060711540
      340.8701019100        0.0417308970
       77.3631351700        0.1850777598
       21.4796449400        0.4668774046
        6.6589433100        0.4435718061
 s  1 1.0
        0.8097597600        1.0000000000
 s  1 1.0
        0.2553077200        1.0000000000
 p  3 1.0
       17.7215043200        0.0628680198
        3.8635505400        0.3334973703
        1.0480920900        0.7412421661
 p  1 1.0
        0.2764154400        1.0000000000
 d  1 1.0
        1.2000000000        1.0000000000
 
[5D]
[7F]
[9G]
[MO]
 Ene=   0.92389094170569E+00
 Spin= Alpha
 Occup=    0.000000
   1      0.000000000000
   2      0.000000000000
   3      0.000000000000
   4      0.000000000000
   5      0.000000000000
   6      0.000000000000
   7      0.000000000000
   8      0.000000000000
   9      0.000000000000
  10      0.000000000000
  11      0.000000000000
  12      0.000000000000
  13      0.000000000000
  14      0.000000000000
  15      0.000000000000
  16      0.000000000000
  17      0.000000000000
  18      0.000000000000
  19      0.000000000000
  20      0.000000000000
  21      0.000000000000
  22      0.000000000000
  23      0.000000000000
  24      0.000000000000
  25      0.000000000000
  26      0.000000000000
  27      0.000000000000
  28      0.000000000000
  29      0.000000000000
  30      0.000000000000
  31      0.000000000000
  32      0.000000000000
  33      0.000000000000
  34      0.000000000000
  35      0.000000000000
  36      0.000000000000
  37      0.000000000000
  38      0.000000000000
  39      0.000000000000
  40      0.000000000000
  41      0.000000000000
  42      0.000000000000
  43      0.000000000000
  44      0.000000000000
  45      0.000000000000
  46      0.000000000000
  47      0.000000000000
  48      0.000000000000
  49      0.000000000000
  50      0.000000000000
  51      0.000000000000
  52      0.000000000000
  53      0.000000000000
  54      0.000000000000
  55      0.000000000000
  56      0.000000000000
  57      0.000000000000
  58      0.000000000000
  59      0.000000000000
  60      0.000000000000
  61      0.000000000000
  62      0.000000000000
  63      0.000000000000
  64      0.000000000000
  65      0.000000000000
  66      0.000000000000
  67      0.000000000000
  68      0.000000000000
  69      0.000000000000
  70      0.000000000000
  71      0.000000000000
  72      0.000000000000
  73      0.000000000000
  74      0.000000000000
  75      0.000000000000
  76      0.000000000000
  77      0.000000000000
  78      0.000000000000
  79      0.000000000000
  80      0.000000000000
  81      0.000000000000
  82      0.000000000000
  83      0.000000000000
  84      0.000000000000
  85      0.000000000000
  86      0.000000000000
  87      0.000000000000
  88      0.000000000000
  89      0.000000000000
  90      0.000000000000
  91      0.000000000000
  92      0.000000000000
  93      0.000000000000
  94      0.000000000000
  95      0.000000000000
  96      0.000000000000
  97      0.000000000000
  98      0.000000000000
  99      0.000000000000
 100      0.000000000000
 101      0.000000000000
 102      0.000000000000
 103      0.000000000000
 104      0.000000000000
 105      0.000000000000
 106      0.000000000000
 107      0.000000000000
 108      0.000000000000
 109      0.000000000000
 110      0.000000000000
 111      0.000000000000
 112      0.000000000000
 113      0.000000000000
 114      0.000000000000
 115      0.000000000000
 116      0.000000000000
 117      0.000000000000
 118      0.000000000000
 119      0.000000000000
 120      0.000000000000
 121      0.000000000000
 122      0.000000000000
 123      0.000000000000
 124      0.000000000000
 125      0.000000000000
 126      0.000000000000
 127      0.000000000000
 128      0.000000000000
 129      0.000000000000
 130      0.000000000000
 131      0.000000000000
 132      0.000000000000
 133      0.000000000000
 134      0.000000000000
 135      0.000000000000
 136      0.000000000000
 137      0.000000000000
 138      0.000000000000
 139      0.000000000000
 140      0.000000000000
 141      0.000000000000
 142      0.000000000000
 143      0.000000000000
 144      0.000000000000
 145      0.000000000000
 146      0.000000000000
 147      0.000000000000
 148      0.000000000000
 149      0.000000000000
 150      0.000000000000
 151      0.000000000000
 152      0.000000000000
 153      0.000000000000
 Ene=   0.92667625388618E+00
 Spin= Alpha
 Occup=    0.000000
   1      0.000001957180
   2      0.000001066056
   3      0.000004402648
   4      0.000018065703
   5     -0.000028297373
   6     -0.000014723695
   7      0.000101757447
   8     -0.000259467945
   9      0.000337363830
  10      0.002204381189
  11     -0.051552013894
  12     -0.007171354156
  13     -0.001897729550
  14      0.044190689567
  15      0.006154254019
  16     -0.007628657351
  17      0.179462646206
  18      0.024929267448
  19      0.009689712245
  20     -0.230819684908
  21     -0.032004495834
  22     -0.000035144698
  23     -0.000660013401
  24     -0.004192189430
  25     -0.019440163904
  26      0.069685001402
  27      0.000160277482
  28     -0.006369909598
  29     -0.005875791144
  30     -0.039647645361
  31      0.138773141968
  32     -0.093339510899
  33      2.250593470746
  34      0.312345779121
  35      0.000355652538
  36     -0.003494405951
  37     -0.000457361176
  38      0.000151723824
  39     -0.000416544151
  40     -0.004771055065
  41     -0.002100103402
  42      0.000003513032
  43     -0.000024835102
  44      0.000120146807
  45      0.005782943251
  46     -0.137337313148
  47     -0.017589415500
  48     -0.005058508166
  49      0.121024537417
  50      0.015041497332
  51      0.000135970521
  52     -0.001879288913
  53      0.000080611209
  54      0.002126386308
  55     -0.007862226879
  56      0.000046700359
  57     -0.000341337183
  58     -0.000527756909
  59      0.000980410180
  60     -0.020423532086
  61     -0.002943327084
  62     -0.001712983997
  63      0.039600564611
  64      0.005926950753
  65     -0.002720103294
  66      0.036647684027
  67      0.008230881859
  68      0.021766409062
  69     -0.071611479241
  70      0.000099388601
  71     -0.000429737638
  72      0.003564401834
  73      0.000625992382
  74     -0.021011671129
  75     -0.002740268095
  76      0.001317494828
  77      0.040521581655
  78      0.005830142676
  79      0.002615416177
  80     -0.031606421983
  81     -0.001185334546
  82      0.019644540454
  83     -0.074795075879
  84      0.000014600373
  85     -0.000040504405
  86      0.000505851968
  87      0.006773587946
  88     -0.134221055259
  89     -0.019554403087
  90     -0.006630594096
  91      0.117554618034
  92      0.017265184292
  93     -0.000183881852
  94      0.002328971990
  95      0.000672624765
  96      0.002254975598
  97     -0.007667999507
  98      0.065847594357
  99     -0.177080443048
 100      1.874625066845
 101      0.003487341260
 102     -0.245701690661
 103      0.121534780997
 104     -0.022848171209
 105      1.386924316439
 106     -0.672850214560
 107     -0.069794125448
 108     -0.002553863602
 109      0.002371663578
 110      0.081329467901
 111     -0.109943696659
 112      0.027890595815
 113     -0.106231246773
 114      0.270116767782
 115     -0.007743516011
 116      0.440457034870
 117     -0.172107595031
 118      0.013651743409
 119     -0.781716085127
 120      0.332720241020
 121     -0.002770305491
 122     -0.000195086949
 123      0.000099932458
 124      0.003360218692
 125     -0.003521746620
 126     -0.066033034281
 127      0.177951316475
 128     -1.878311735229
 129      0.015410983281
 130     -0.203355041345
 131     -0.184035376486
 132     -0.086005173197
 133      1.151396629248
 134      1.025583840669
 135      0.069403491844
 136      0.010667531197
 137      0.009890718802
 138     -0.011484829271
 139     -0.136094005371
 140     -0.028016158372
 141      0.106787936984
 142     -0.270787716361
 143     -0.026948914602
 144      0.376688242827
 145      0.286767177284
 146      0.047969618181
 147     -0.661383961103
 148     -0.534526951595
 149      0.002767922267
 150      0.000398024084
 151      0.000335935581
 152     -0.001009063052
 153     -0.004738861483
 Ene=   0.92667625388620E+00
 Spin= Alpha
 Occup=    0.000000
   1      0.000000000000
   2      0.000000000000
   3      0.000000000000
   4      0.000000000000
   5      0.000000000000
   6      0.000000000000
   7      0.000000000000
   8      0.000000000000
   9      0.000000000000
  10      0.000000000000
  11      0.000000000000
  12      0.000000000000
  13      0.000000000000
  14      0.000000000000
  15      0.000000000000
  16      0.000000000000
  17      0.000000000000
  18      0.000000000000
  19      0.000000000000
  20      0.000000000000
  21      0.000000000000
  22      0.000000000000
  23      0.000000000000
  24      0.000000000000
  25      0.000000000000
  26      0.000000000000
  27      0.000000000000
  28      0.000000000000
  29      0.000000000000
  30      0.000000000000
  31      0.000000000000
  32      0.000000000000
  33      0.000000000000
  34      0.000000000000
  35      0.000000000000
  36      0.000000000000
  37      0.000000000000
  38      0.000000000000
  39      0.000000000000
  40      0.000000000000
  41      0.000000000000
  42      0.000000000000
  43      0.000000000000
  44      0.000000000000
  45      0.000000000000
  46      0.000000000000
  47      0.000000000000
  48      0.000000000000
  49      0.000000000000
  50      0.000000000000
  51      0.000000000000
  52      0.000000000000
  53      0.000000000000
  54      0.000000000000
  55      0.000000000000
  56      0.000000000000
  57      0.000000000000
  58      0.000000000000
  59      0.000000000000
  60      0.000000000000
  61      0.000000000000
  62      0.000000000000
  63      0.000000000000
  64      0.000000000000
  65      0.000000000000
  66      0.000000000000
  67      0.000000000000
  68      0.000000000000
  69      0.000000000000
  70      0.000000000000
  71      0.000000000000
  72      0.000000000000
  73      0.000000000000
  74      0.000000000000
  75      0.000000000000
  76      0.000000000000
  77      0.000000000000
  78      0.000000000000
  79      0.000000000000
  80      0.000000000000
  81      0.000000000000
  82      0.000000000000
  83      0.000000000000
  84      0.000000000000
  85      0.000000000000
  86      0.000000000000
  87      0.000000000000
  88      0.000000000000
  89      0.000000000000
  90      0.000000000000
  91      0.000000000000
  92      0.000000000000
  93      0.000000000000
  94      0.000000000000
  95      0.000000000000
  96      0.000000000000
  97      0.000000000000
  98      0.000000000000
  99      0.000000000000
 100      0.000000000000
 101      0.000000000000
 102      0.000000000000
 103      0.000000000000
 104      0.000000000000
 105      0.000000000000
 106      0.000000000000
 107      0.000000000000
 108      0.000000000000
 109      0.000000000000
 110      0.000000000000
 111      0.000000000000
 112      0.000000000000
 113      0.000000000000
 114      0.000000000000
 115      0.000000000000
 116      0.000000000000
 117      0.000000000000
 118      0.000000000000
 119      0.000000000000
 120      0.000000000000
 121      0.000000000000
 122      0.000000000000
 123      0.000000000000
 124      0.000000000000
 125      0.000000000000
 126      0.000000000000
 127      0.000000000000
 128      0.000000000000
 129      0.000000000000
 130      0.000000000000
 131      0.000000000000
 132      0.000000000000
 133      0.000000000000
 134      0.000000000000
 135      0.000000000000
 136      0.000000000000
 137      0.000000000000
 138      0.000000000000
 139      0.000000000000
 140      0.000000000000
 141      0.000000000000
 142      0.000000000000
 143      0.000000000000
 144      0.000000000000
 145      0.000000000000
 146      0.000000000000
 147      0.000000000000
 148      0.000000000000
 149      0.000000000000
 150      0.000000000000
 151      0.000000000000
 152      0.000000000000
 153      0.000000000000
 Ene=   0.93447146066632E+00
 Spin= Alpha
 Occup=    0.000000
   1      0.000000000000
   2      0.000000000000
   3      0.000000000000
   4      0.000000000000
   5      0.000000000000
   6      0.000000000000
   7      0.000000000000
   8      0.000000000000
   9      0.000000000000
  10      0.000000000000
  11      0.000000000000
  12      0.000000000000
  13      0.000000000000
  14      0.000000000000
  15      0.000000000000
  16      0.000000000000
  17      0.000000000000
  18      0.000000000000
  19      0.000000000000
  20      0.000000000000
  21      0.000000000000
  22      0.000000000000
  23      0.000000000000
  24      0.000000000000
  25      0.000000000000
  26      0.000000000000
  27      0.000000000000
  28      0.000000000000
  29      0.000000000000
  30      0.000000000000
  31      0.000000000000
  32      0.000000000000
  33      0.000000000000
  34      0.000000000000
  35      0.000000000000
  36      0.000000000000
  37      0.000000000000
  38      0.000000000000
  39      0.000000000000
  40      0.000000000000
  41      0.000000000000
  42      0.000000000000
  43      0.000000000000
  44      0.000000000000
  45      0.000000000000
  46      0.000000000000
  47      0.000000000000
  48      0.000000000000
  49      0.000000000000
  50      0.000000000000
  51      0.000000000000
  52      0.000000000000
  53      0.000000000000
  54      0.000000000000
  55      0.000000000000
  56      0.000000000000
  57      0.000000000000
  58      0.000000000000
  59      0.000000000000
  60      0.000000000000
  61      0.000000000000
  62      0.000000000000
  63      0.000000000000
  64      0.000000000000
  65      0.000000000000
  66      0.000000000000
  67      0.000000000000
  68      0.000000000000
  69      0.000000000000
  70      0.000000000000
  71      0.000000000000
  72      0.000000000000
  73      0.000000000000
  74      0.000000000000
  75      0.000000000000
  76      0.000000000000
  77      0.000000000000
  78      0.000000000000
  79      0.000000000000
  80      0.000000000000
  81      0.000000000000
  82      0.000000000000
  83      0.000000000000
  84      0.000000000000
  85      0.000000000000
  86      0.000000000000
  87      0.000000000000
  88      0.000000000000
  89      0.000000000000
  90      0.000000000000
  91      0.000000000000
  92      0.000000000000
  93      0.000000000000
  94      0.000000000000
  95      0.000000000000
  96      0.000000000000
  97      0.000000000000
  98      0.000000000000
  99      0.000000000000
 100      0.000000000000
 101      0.000000000000
 102      0.000000000000
 103      0.000000000000
 104      0.000000000000
 105      0.000000000000
 106      0.000000000000
 107      0.000000000000
 108      0.000000000000
 109      0.000000000000
 110      0.000000000000
 111      0.000000000000
 112      0.000000000000
 113      0.000000000000
 114      0.000000000000
 115      0.000000000000
 116      0.000000000000
 117      0.000000000000
 118      0.000000000000
 119      0.000000000000
 120      0.000000000000
 121      0.000000000000
 122      0.000000000000
 123      0.000000000000
 124      0.000000000000
 125      0.000000000000
 126      0.000000000000
 127      0.000000000000
 128      0.000000000000
 129      0.000000000000
 130      0.000000000000
 131      0.000000000000
 132      0.000000000000
 133      0.000000000000
 134      0.000000000000
 135      0.000000000000
 136      0.000000000000
 137      0.000000000000
 138      0.000000000000
 139      0.000000000000
 140      0.000000000000
 141      0.000000000000
 142      0.000000000000
 143      0.000000000000
 144      0.000000000000
 145      0.000000000000
 146      0.000000000000
 147      0.000000000000
 148      0.000000000000
 149      0.000000000000
 150      0.000000000000
 151      0.000000000000
 152      0.000000000000
 153      0.000000000000
 Ene=   0.93447146066633E+00
 Spin= Alpha
 Occup=    0.000000
   1     -0.000000991135
   2     -0.000000483285
   3     -0.000007322332
   4     -0.000020794223
   5      0.000026430806
   6      0.000028202276
   7     -0.000096293507
   8      0.000383059271
   9     -0.000423322924
  10     -0.000032442113
  11      0.000164606636
  12      0.000056931525
  13      0.000031259869
  14     -0.000140248094
  15     -0.000056736172
  16      0.000093991691
  17     -0.000577774010
  18     -0.000158248535
  19     -0.000068466744
  20      0.000746253621
  21      0.000141999426
  22     -0.032903185435
  23      0.445621505389
  24      0.061093209269
  25      0.013654282554
  26      0.020781803571
  27      0.042306414030
  28     -0.564238312946
  29     -0.077297399364
  30     -0.017290308069
  31     -0.027123445604
  32      0.000615965594
  33     -0.007415769592
  34     -0.002007680372
  35      0.000004300515
  36      0.000047345650
  37      0.000057187784
  38      0.000185731258
  39     -0.000656000600
  40      0.000064167808
  41     -0.000027277232
  42     -0.000010822880
  43      0.000038519900
  44     -0.000526153715
  45      0.018930728801
  46     -0.424694601345
  47     -0.059000123181
  48     -0.021214412096
  49      0.468204891900
  50      0.065123914083
  51      0.000547017911
  52     -0.007462072119
  53     -0.001044862058
  54     -0.000414754129
  55      0.000332576119
  56     -0.000134306960
  57      0.000703976644
  58     -0.002253135675
  59     -0.004742366784
  60      0.101075326497
  61      0.014019944469
  62      0.007754012242
  63     -0.125787234761
  64     -0.017658288860
  65     -0.005076554020
  66      0.065383233445
  67      0.009156643122
  68      0.003570318882
  69     -0.001872227792
  70     -0.000056555891
  71      0.000335647442
  72     -0.001442726640
  73      0.004385339961
  74     -0.101000101048
  75     -0.014032387180
  76     -0.006939237264
  77      0.125645117482
  78      0.017131646162
  79     -0.005008188714
  80      0.065301131880
  81      0.008734516901
  82      0.000566778193
  83      0.008596088742
  84     -0.000007510187
  85      0.000041590139
  86     -0.000419873907
  87     -0.018574476933
  88      0.425597117214
  89      0.058772772480
  90      0.020650807653
  91     -0.469013003332
  92     -0.064668370215
  93      0.000560271944
  94     -0.007438300645
  95     -0.000999979009
  96     -0.000039674215
  97     -0.000976074542
  98     -0.000109505450
  99      0.000086880823
 100     -0.004058344433
 101     -0.092057390972
 102     -0.002880322497
 103     -0.004114287582
 104      0.024793592558
 105     -0.002238826815
 106      0.002659994177
 107     -0.000756801415
 108      0.054471470500
 109     -0.037170473881
 110      0.003355694089
 111      0.001182283094
 112     -0.000003780192
 113     -0.000048962051
 114     -0.000437252580
 115      0.324409997599
 116      0.011005409543
 117      0.013344668394
 118     -0.317277028141
 119     -0.010033852171
 120     -0.013318288881
 121      0.000310041533
 122     -0.009704158645
 123      0.004237702016
 124     -0.000554512172
 125     -0.000236111035
 126      0.000354680168
 127     -0.001355579392
 128      0.008505092642
 129      0.092099183692
 130      0.004324549525
 131      0.004720667580
 132     -0.024194920548
 133     -0.006160367515
 134     -0.005599337393
 135     -0.006818323126
 136      0.042122285512
 137      0.050353043437
 138     -0.000545456164
 139      0.004198304867
 140      0.000145995890
 141     -0.000613312294
 142      0.001474043832
 143     -0.324215860497
 144     -0.013396811828
 145     -0.015604121237
 146      0.316848070370
 147      0.014277210927
 148      0.016370953307
 149      0.000998832515
 150     -0.008172464700
 151     -0.006701942190
 152     -0.000020064275
 153     -0.000584042249
 Ene=   0.93816500707784E+00
 Spin= Alpha
 Occup=    0.000000
   1     -0.001484276818
   2     -0.001024959897
   3      0.016060654469
   4      0.030318809853
   5     -0.024476007046
   6     -0.064935270580
   7      0.079760731863
   8     -0.716223274384
   9      0.250949094235
  10      0.000621062688
  11      0.002464724163
  12     -0.016881545156
  13     -0.000652285300
  14     -0.002563542338
  15      0.017675343803
  16     -0.001547083226
  17     -0.006268522222
  18      0.042329631397
  19      0.000952824549
  20      0.004161254089
  21     -0.026705915252
  22     -0.080536854742
  23     -0.011123150197
  24     -0.001124916142
  25      0.141063639252
  26      0.039751874700
  27     -0.212964165247
  28     -0.010391186052
  29     -0.018760563744
  30     -0.090648221834
  31     -0.026699769336
  32     -0.014251259256
  33     -0.059493810479
  34      0.391637950753
  35      0.000077730324
  36      0.000151878725
  37     -0.000874687518
  38     -0.000110972434
  39     -0.000425532824
  40     -0.002459899071
  41      0.005612127099
  42      0.003456837684
  43     -0.016953669371
  44      0.262867336828
  45     -0.304544044629
  46     -0.024529187250
  47      0.077619054169
  48      0.461824549717
  49      0.037407022956
  50     -0.120946602916
  51      0.000157350462
  52      0.000778052212
  53     -0.004089317317
  54     -0.004727916286
  55     -0.001499860095
  56      0.055082069011
  57     -0.302825269678
  58      1.019379545577
  59      0.141124785346
  60      0.005802750776
  61      0.003796169238
  62     -1.070231990131
  63     -0.058422000888
  64      0.087810989092
  65      0.097239926482
  66      0.007269640334
  67      0.014657296733
  68     -0.044609414330
  69     -0.011839968988
  70      0.055069251265
  71     -0.302809816890
  72      1.019475956505
  73     -0.140901896476
  74     -0.005003767340
  75     -0.008139393191
  76      1.060470508907
  77      0.020869014289
  78      0.177565228177
  79      0.098371885411
  80      0.009802241270
  81     -0.003142997624
  82     -0.043779229293
  83     -0.012378997072
  84      0.003458407019
  85     -0.016967212530
  86      0.262888400555
  87      0.297783655292
  88     -0.000482778987
  89      0.103593407173
  90     -0.451340832492
  91      0.001635521336
  92     -0.160106577415
  93     -0.000349956675
  94     -0.000335890184
  95      0.003762945390
  96     -0.005099222155
  97     -0.001260283842
  98     -0.048846790560
  99      0.261342089165
 100     -0.901318549973
 101     -0.001658983363
 102      0.111348320447
 103     -0.062950101908
 104      0.010922264236
 105     -0.625860061422
 106      0.291670367074
 107      0.094790760948
 108      0.005221138517
 109      0.004917242145
 110     -0.014400623187
 111      0.035251895176
 112     -0.029082899939
 113      0.133477226136
 114     -0.198138836154
 115     -0.010229560740
 116     -0.169084860862
 117      0.407423295623
 118      0.009314942632
 119      0.316299226371
 120     -0.514803609702
 121      0.005881676563
 122      0.000306441452
 123      0.000682061472
 124      0.003889587665
 125     -0.002215162764
 126     -0.048560589099
 127      0.260362500850
 128     -0.894073772649
 129      0.007373217740
 130     -0.089004478058
 131     -0.090046332216
 132     -0.037936701024
 133      0.517285884832
 134      0.446422401305
 135      0.094332501033
 136      0.007545896978
 137      0.008651792721
 138      0.006171770013
 139     -0.036583370134
 140     -0.029005445485
 141      0.133179164076
 142     -0.196915271193
 143     -0.020879233273
 144      0.049414575937
 145      0.436822019793
 146      0.030916319659
 147     -0.160565112639
 148     -0.579264837920
 149      0.005889688701
 150      0.000107686040
 151      0.000349151900
 152      0.002141995864
 153      0.003983313203
 Ene=   0.93816500707787E+00
 Spin= Alpha
 Occup=    0.000000
   1      0.000000000000
   2      0.000000000000
   3      0.000000000000
   4      0.000000000000