[Molden Format]
[Title]
generated by TRESC, real part1 of MOs of job FeCO4
 
[Atoms] AU
Fe   1  26   -0.0540389823    0.5191872865    1.0066466406
 O   2   8    0.2117534346    0.3334081356    6.6028244914
 C   3   6    0.1037850741    0.4413681813    4.4353204988
 C   4   6   -0.1488590074    0.1539081662   -2.4057183154
 O   5   8   -0.2001917131   -0.1354255122   -4.5586307888
 C   6   6   -3.2515199836    1.5320722906    1.0822035548
 O   7   8   -5.2145614824    2.4961101455    1.1140656578
 C   8   6    2.7435656063    2.3618413346    0.8253578566
 O   9   8    4.3670403525    3.8224610068    0.7033934295
[GTO]
  1 0
 s  6 1.0
    60923.6406430000        0.0045980778
     9147.8893982000        0.0193220084
     2081.3505927000        0.0775531983
      587.5597706700        0.2480208186
      191.0904399000        0.4675986791
       65.7327301100        0.3373548125
 s  1 1.0
      127.2589192800        1.0000000000
 s  1 1.0
       14.8309130100        1.0000000000
 s  1 1.0
        6.0653307400        1.0000000000
 s  1 1.0
       10.4499437100        1.0000000000
 s  1 1.0
        1.7245228000        1.0000000000
 s  1 1.0
        0.7177217700        1.0000000000
 s  1 1.0
        0.0914498300        1.0000000000
 s  1 1.0
        0.0337066900        1.0000000000
 p  5 1.0
      773.4375099500        0.0106099056
      182.1514971400        0.0713199466
       57.5472727600        0.2648513978
       20.6149889400        0.5090783315
        7.6348557900        0.3293226861
 p  1 1.0
        3.8719328000        1.0000000000
 p  1 1.0
        1.4924724100        1.0000000000
 p  1 1.0
        0.5606128500        1.0000000000
 d  4 1.0
       38.9681334200        0.0334987321
       10.8000670800        0.1771399682
        3.6136458000        0.4404450273
        1.2129967900        0.5720563253
 d  1 1.0
        0.3652439300        1.0000000000
 p  1 1.0
        0.1349150000        1.0000000000
 f  1 1.0
        1.5980000000        1.0000000000
 
  2 0
 s  5 1.0
     2266.1767785000        0.0060711540
      340.8701019100        0.0417308970
       77.3631351700        0.1850777598
       21.4796449400        0.4668774046
        6.6589433100        0.4435718061
 s  1 1.0
        0.8097597600        1.0000000000
 s  1 1.0
        0.2553077200        1.0000000000
 p  3 1.0
       17.7215043200        0.0628680198
        3.8635505400        0.3334973703
        1.0480920900        0.7412421661
 p  1 1.0
        0.2764154400        1.0000000000
 d  1 1.0
        1.2000000000        1.0000000000
 
  3 0
 s  5 1.0
     1238.4016938000        0.0059599745
      186.2900499200        0.0422621111
       42.2511763500        0.1866575214
       11.6765579300        0.4675815865
        3.5930506500        0.4422897287
 s  1 1.0
        0.4024514700        1.0000000000
 s  1 1.0
        0.1309018300        1.0000000000
 p  3 1.0
        9.4680970600        0.0570294585
        2.0103545100        0.3130471495
        0.5477100500        0.7605135301
 p  1 1.0
        0.1526861400        1.0000000000
 d  1 1.0
        0.8000000000        1.0000000000
 
  4 0
 s  5 1.0
     1238.4016938000        0.0059599745
      186.2900499200        0.0422621111
       42.2511763500        0.1866575214
       11.6765579300        0.4675815865
        3.5930506500        0.4422897287
 s  1 1.0
        0.4024514700        1.0000000000
 s  1 1.0
        0.1309018300        1.0000000000
 p  3 1.0
        9.4680970600        0.0570294585
        2.0103545100        0.3130471495
        0.5477100500        0.7605135301
 p  1 1.0
        0.1526861400        1.0000000000
 d  1 1.0
        0.8000000000        1.0000000000
 
  5 0
 s  5 1.0
     2266.1767785000        0.0060711540
      340.8701019100        0.0417308970
       77.3631351700        0.1850777598
       21.4796449400        0.4668774046
        6.6589433100        0.4435718061
 s  1 1.0
        0.8097597600        1.0000000000
 s  1 1.0
        0.2553077200        1.0000000000
 p  3 1.0
       17.7215043200        0.0628680198
        3.8635505400        0.3334973703
        1.0480920900        0.7412421661
 p  1 1.0
        0.2764154400        1.0000000000
 d  1 1.0
        1.2000000000        1.0000000000
 
  6 0
 s  5 1.0
     1238.4016938000        0.0059599745
      186.2900499200        0.0422621111
       42.2511763500        0.1866575214
       11.6765579300        0.4675815865
        3.5930506500        0.4422897287
 s  1 1.0
        0.4024514700        1.0000000000
 s  1 1.0
        0.1309018300        1.0000000000
 p  3 1.0
        9.4680970600        0.0570294585
        2.0103545100        0.3130471495
        0.5477100500        0.7605135301
 p  1 1.0
        0.1526861400        1.0000000000
 d  1 1.0
        0.8000000000        1.0000000000
 
  7 0
 s  5 1.0
     2266.1767785000        0.0060711540
      340.8701019100        0.0417308970
       77.3631351700        0.1850777598
       21.4796449400        0.4668774046
        6.6589433100        0.4435718061
 s  1 1.0
        0.8097597600        1.0000000000
 s  1 1.0
        0.2553077200        1.0000000000
 p  3 1.0
       17.7215043200        0.0628680198
        3.8635505400        0.3334973703
        1.0480920900        0.7412421661
 p  1 1.0
        0.2764154400        1.0000000000
 d  1 1.0
        1.2000000000        1.0000000000
 
  8 0
 s  5 1.0
     1238.4016938000        0.0059599745
      186.2900499200        0.0422621111
       42.2511763500        0.1866575214
       11.6765579300        0.4675815865
        3.5930506500        0.4422897287
 s  1 1.0
        0.4024514700        1.0000000000
 s  1 1.0
        0.1309018300        1.0000000000
 p  3 1.0
        9.4680970600        0.0570294585
        2.0103545100        0.3130471495
        0.5477100500        0.7605135301
 p  1 1.0
        0.1526861400        1.0000000000
 d  1 1.0
        0.8000000000        1.0000000000
 
  9 0
 s  5 1.0
     2266.1767785000        0.0060711540
      340.8701019100        0.0417308970
       77.3631351700        0.1850777598
       21.4796449400        0.4668774046
        6.6589433100        0.4435718061
 s  1 1.0
        0.8097597600        1.0000000000
 s  1 1.0
        0.2553077200        1.0000000000
 p  3 1.0
       17.7215043200        0.0628680198
        3.8635505400        0.3334973703
        1.0480920900        0.7412421661
 p  1 1.0
        0.2764154400        1.0000000000
 d  1 1.0
        1.2000000000        1.0000000000
 
[5D]
[7F]
[9G]
[MO]
 Ene=  -0.25557501813879E+03
 Spin= Alpha
 Occup=    0.000000
   1      0.000000000000
   2      0.000000000000
   3      0.000000000000
   4      0.000000000000
   5      0.000000000000
   6      0.000000000000
   7      0.000000000000
   8      0.000000000000
   9      0.000000000000
  10      0.000000000000
  11      0.000000000000
  12      0.000000000000
  13      0.000000000000
  14      0.000000000000
  15      0.000000000000
  16      0.000000000000
  17      0.000000000000
  18      0.000000000000
  19      0.000000000000
  20      0.000000000000
  21      0.000000000000
  22      0.000000000000
  23      0.000000000000
  24      0.000000000000
  25      0.000000000000
  26      0.000000000000
  27      0.000000000000
  28      0.000000000000
  29      0.000000000000
  30      0.000000000000
  31      0.000000000000
  32      0.000000000000
  33      0.000000000000
  34      0.000000000000
  35      0.000000000000
  36      0.000000000000
  37      0.000000000000
  38      0.000000000000
  39      0.000000000000
  40      0.000000000000
  41      0.000000000000
  42      0.000000000000
  43      0.000000000000
  44      0.000000000000
  45      0.000000000000
  46      0.000000000000
  47      0.000000000000
  48      0.000000000000
  49      0.000000000000
  50      0.000000000000
  51      0.000000000000
  52      0.000000000000
  53      0.000000000000
  54      0.000000000000
  55      0.000000000000
  56      0.000000000000
  57      0.000000000000
  58      0.000000000000
  59      0.000000000000
  60      0.000000000000
  61      0.000000000000
  62      0.000000000000
  63      0.000000000000
  64      0.000000000000
  65      0.000000000000
  66      0.000000000000
  67      0.000000000000
  68      0.000000000000
  69      0.000000000000
  70      0.000000000000
  71      0.000000000000
  72      0.000000000000
  73      0.000000000000
  74      0.000000000000
  75      0.000000000000
  76      0.000000000000
  77      0.000000000000
  78      0.000000000000
  79      0.000000000000
  80      0.000000000000
  81      0.000000000000
  82      0.000000000000
  83      0.000000000000
  84      0.000000000000
  85      0.000000000000
  86      0.000000000000
  87      0.000000000000
  88      0.000000000000
  89      0.000000000000
  90      0.000000000000
  91      0.000000000000
  92      0.000000000000
  93      0.000000000000
  94      0.000000000000
  95      0.000000000000
  96      0.000000000000
  97      0.000000000000
  98      0.000000000000
  99      0.000000000000
 100      0.000000000000
 101      0.000000000000
 102      0.000000000000
 103      0.000000000000
 104      0.000000000000
 105      0.000000000000
 106      0.000000000000
 107      0.000000000000
 108      0.000000000000
 109      0.000000000000
 110      0.000000000000
 111      0.000000000000
 112      0.000000000000
 113      0.000000000000
 114      0.000000000000
 115      0.000000000000
 116      0.000000000000
 117      0.000000000000
 118      0.000000000000
 119      0.000000000000
 120      0.000000000000
 121      0.000000000000
 122      0.000000000000
 123      0.000000000000
 124      0.000000000000
 125      0.000000000000
 126      0.000000000000
 127      0.000000000000
 128      0.000000000000
 129      0.000000000000
 130      0.000000000000
 131      0.000000000000
 132      0.000000000000
 133      0.000000000000
 134      0.000000000000
 135      0.000000000000
 136      0.000000000000
 137      0.000000000000
 138      0.000000000000
 139      0.000000000000
 140      0.000000000000
 141      0.000000000000
 142      0.000000000000
 143      0.000000000000
 144      0.000000000000
 145      0.000000000000
 146      0.000000000000
 147      0.000000000000
 148      0.000000000000
 149      0.000000000000
 150      0.000000000000
 151      0.000000000000
 152      0.000000000000
 153      0.000000000000
 Ene=  -0.25557501813879E+03
 Spin= Alpha
 Occup=    1.000000
   1      0.878262498072
   2      0.109859044379
   3      0.074764217911
   4      0.013073044508
   5     -0.058623031618
   6     -0.001191434273
   7      0.000375511986
   8     -0.000038907277
   9      0.000003119762
  10      0.000000186525
  11      0.000000709066
  12     -0.000005064918
  13     -0.000000254152
  14     -0.000000961387
  15      0.000006877864
  16      0.000000367419
  17      0.000001385528
  18     -0.000009921073
  19     -0.000000436175
  20     -0.000001641995
  21      0.000011761472
  22      0.000001019771
  23      0.000000025338
  24      0.000000099917
  25      0.000000815530
  26      0.000000234587
  27      0.000002667591
  28      0.000000117306
  29      0.000000229232
  30      0.000001091251
  31      0.000000318418
  32      0.000000633238
  33      0.000002411467
  34     -0.000017161634
  35      0.000000038442
  36      0.000000062465
  37     -0.000000423800
  38      0.000000017708
  39     -0.000000051283
  40     -0.000000195382
  41      0.000000446771
  42     -0.000001161601
  43      0.000011318317
  44     -0.000034591196
  45     -0.000002578391
  46     -0.000000149175
  47      0.000000277172
  48      0.000008347244
  49      0.000000451090
  50     -0.000000667751
  51      0.000000839697
  52      0.000000096591
  53     -0.000000242412
  54     -0.000000006561
  55     -0.000000013052
  56     -0.000000017195
  57      0.000009388550
  58      0.000011354969
  59     -0.000000409812
  60     -0.000000121722
  61      0.000000753566
  62      0.000027847381
  63      0.000001256890
  64     -0.000000453929
  65     -0.000007183228
  66     -0.000000491256
  67     -0.000000277112
  68     -0.000000108092
  69     -0.000000039629
  70     -0.000000017381
  71      0.000009391489
  72      0.000011348912
  73      0.000000353837
  74     -0.000000093062
  75      0.000000786512
  76     -0.000027731070
  77     -0.000000795249
  78     -0.000002791739
  79     -0.000007152492
  80     -0.000000417603
  81     -0.000000774197
  82     -0.000000084612
  83     -0.000000055245
  84     -0.000001161607
  85      0.000011318279
  86     -0.000034590782
  87      0.000002550365
  88      0.000000039420
  89      0.000000491957
  90     -0.000008272250
  91     -0.000000160520
  92     -0.000001363552
  93      0.000000801489
  94      0.000000010040
  95      0.000000360589
  96     -0.000000035058
  97      0.000000005580
  98      0.000000627481
  99      0.000002740139
 100      0.000026869565
 101      0.000000044481
 102     -0.000001054847
 103     -0.000000126132
 104     -0.000000120072
 105     -0.000009099802
 106      0.000010785856
 107      0.000004080495
 108      0.000000295472
 109     -0.000000084674
 110     -0.000005528997
 111      0.000004047512
 112     -0.000001126752
 113      0.000010589498
 114     -0.000027990603
 115     -0.000000047529
 116      0.000002654798
 117     -0.000001198112
 118      0.000000229175
 119     -0.000007753775
 120      0.000001370008
 121     -0.000000563504
 122      0.000000017907
 123      0.000000000784
 124     -0.000000067461
 125     -0.000001214711
 126      0.000000627433
 127      0.000002743958
 128      0.000026858713
 129     -0.000000046694
 130      0.000001049534
 131      0.000000164830
 132     -0.000000757696
 133      0.000005801312
 134      0.000012857637
 135      0.000004052607
 136      0.000000624297
 137      0.000000423090
 138     -0.000002584402
 139     -0.000006330164
 140     -0.000001126940
 141      0.000010591305
 142     -0.000027998351
 143      0.000000162177
 144     -0.000002224624
 145     -0.000001874236
 146     -0.000000408174
 147      0.000007082637
 148      0.000003424677
 149     -0.000000557517
 150     -0.000000052603
 151     -0.000000107693
 152     -0.000000695525
 153      0.000000995442
 Ene=  -0.30019330748684E+02
 Spin= Alpha
 Occup=    0.000000
   1      0.000000000000
   2      0.000000000000
   3      0.000000000000
   4      0.000000000000
   5      0.000000000000
   6      0.000000000000
   7      0.000000000000
   8      0.000000000000
   9      0.000000000000
  10      0.000000000000
  11      0.000000000000
  12      0.000000000000
  13      0.000000000000
  14      0.000000000000
  15      0.000000000000
  16      0.000000000000
  17      0.000000000000
  18      0.000000000000
  19      0.000000000000
  20      0.000000000000
  21      0.000000000000
  22      0.000000000000
  23      0.000000000000
  24      0.000000000000
  25      0.000000000000
  26      0.000000000000
  27      0.000000000000
  28      0.000000000000
  29      0.000000000000
  30      0.000000000000
  31      0.000000000000
  32      0.000000000000
  33      0.000000000000
  34      0.000000000000
  35      0.000000000000
  36      0.000000000000
  37      0.000000000000
  38      0.000000000000
  39      0.000000000000
  40      0.000000000000
  41      0.000000000000
  42      0.000000000000
  43      0.000000000000
  44      0.000000000000
  45      0.000000000000
  46      0.000000000000
  47      0.000000000000
  48      0.000000000000
  49      0.000000000000
  50      0.000000000000
  51      0.000000000000
  52      0.000000000000
  53      0.000000000000
  54      0.000000000000
  55      0.000000000000
  56      0.000000000000
  57      0.000000000000
  58      0.000000000000
  59      0.000000000000
  60      0.000000000000
  61      0.000000000000
  62      0.000000000000
  63      0.000000000000
  64      0.000000000000
  65      0.000000000000
  66      0.000000000000
  67      0.000000000000
  68      0.000000000000
  69      0.000000000000
  70      0.000000000000
  71      0.000000000000
  72      0.000000000000
  73      0.000000000000
  74      0.000000000000
  75      0.000000000000
  76      0.000000000000
  77      0.000000000000
  78      0.000000000000
  79      0.000000000000
  80      0.000000000000
  81      0.000000000000
  82      0.000000000000
  83      0.000000000000
  84      0.000000000000
  85      0.000000000000
  86      0.000000000000
  87      0.000000000000
  88      0.000000000000
  89      0.000000000000
  90      0.000000000000
  91      0.000000000000
  92      0.000000000000
  93      0.000000000000
  94      0.000000000000
  95      0.000000000000
  96      0.000000000000
  97      0.000000000000
  98      0.000000000000
  99      0.000000000000
 100      0.000000000000
 101      0.000000000000
 102      0.000000000000
 103      0.000000000000
 104      0.000000000000
 105      0.000000000000
 106      0.000000000000
 107      0.000000000000
 108      0.000000000000
 109      0.000000000000
 110      0.000000000000
 111      0.000000000000
 112      0.000000000000
 113      0.000000000000
 114      0.000000000000
 115      0.000000000000
 116      0.000000000000
 117      0.000000000000
 118      0.000000000000
 119      0.000000000000
 120      0.000000000000
 121      0.000000000000
 122      0.000000000000
 123      0.000000000000
 124      0.000000000000
 125      0.000000000000
 126      0.000000000000
 127      0.000000000000
 128      0.000000000000
 129      0.000000000000
 130      0.000000000000
 131      0.000000000000
 132      0.000000000000
 133      0.000000000000
 134      0.000000000000
 135      0.000000000000
 136      0.000000000000
 137      0.000000000000
 138      0.000000000000
 139      0.000000000000
 140      0.000000000000
 141      0.000000000000
 142      0.000000000000
 143      0.000000000000
 144      0.000000000000
 145      0.000000000000
 146      0.000000000000
 147      0.000000000000
 148      0.000000000000
 149      0.000000000000
 150      0.000000000000
 151      0.000000000000
 152      0.000000000000
 153      0.000000000000
 Ene=  -0.30019330748684E+02
 Spin= Alpha
 Occup=    1.000000
   1     -0.290562231874
   2     -0.152560504445
   3      0.599643693734
   4      0.449668777318
   5      0.057473251268
   6      0.026149379852
   7     -0.005127446286
   8     -0.000128384493
   9      0.000059089029
  10     -0.000002915799
  11     -0.000010063554
  12      0.000074508833
  13     -0.000000432256
  14     -0.000001548114
  15      0.000011308581
  16     -0.000001611248
  17     -0.000006053391
  18      0.000043396417
  19      0.000003983979
  20      0.000014982466
  21     -0.000107328203
  22      0.000419689929
  23      0.000014840673
  24      0.000038354544
  25      0.000245919826
  26      0.000071083266
  27     -0.000352517677
  28     -0.000016965288
  29     -0.000029319946
  30     -0.000114594907
  31     -0.000033590563
  32     -0.000008235626
  33     -0.000031612439
  34      0.000223751271
  35     -0.000000476244
  36     -0.000000763629
  37      0.000005257593
  38     -0.000000344775
  39      0.000000365948
  40      0.000000676112
  41     -0.000001575755
  42      0.000016673705
  43     -0.000173380023
  44      0.000563798460
  45      0.000042906945
  46      0.000002371105
  47     -0.000003813287
  48     -0.000114390311
  49     -0.000006345135
  50      0.000010303454
  51     -0.000021482952
  52     -0.000002055436
  53      0.000003326749
  54     -0.000000134043
  55      0.000000120077
  56     -0.000007845135
  57     -0.000098508153
  58      0.000034561119
  59     -0.000032508883
  60     -0.000000351493
  61     -0.000007559538
  62     -0.000609681957
  63     -0.000028032580
  64      0.000013673951
  65      0.000140569858
  66      0.000010694066
  67     -0.000002556110
  68      0.000002909765
  69      0.000000643838
  70     -0.000007842459
  71     -0.000098546908
  72      0.000034658711
  73      0.000032955985
  74      0.000002061831
  75     -0.000004819915
  76      0.000606843013
  77      0.000016885838
  78      0.000064821946
  79      0.000138945473
  80      0.000006985739
  81      0.000023078794
  82      0.000001697020
  83      0.000001441613
  84      0.000016673550
  85     -0.000173377333
  86      0.000563790921
  87     -0.000042497570
  88     -0.000000768744
  89     -0.000007390487
  90      0.000113277740
  91      0.000002025007
  92      0.000019830665
  93     -0.000020865396
  94     -0.000000656595
  95     -0.000006404254
  96      0.000000325955
  97     -0.000000180607
  98     -0.000004507442
  99     -0.000057586559
 100     -0.000316097696
 101     -0.000000210908
 102      0.000005727733
 103     -0.000000066018
 104      0.000001539717
 105      0.000153572469
 106     -0.000170676711
 107     -0.000041025330
 108     -0.000002423742
 109      0.000001014206
 110      0.000051330827
 111     -0.000049912244
 112      0.000013180880
 113     -0.000138156281
 114      0.000403720420
 115      0.000000757847
 116     -0.000032327667
 117      0.000010338718
 118     -0.000003680714
 119      0.000122908925
 120     -0.000020509607
 121      0.000003798084
 122     -0.000000249332
 123     -0.000000043252
 124      0.000001442878
 125      0.000010348818
 126     -0.000004509847
 127     -0.000057612959
 128     -0.000315835125
 129      0.000000281628
 130     -0.000005506402
 131     -0.000001619623
 132      0.000012451890
 133     -0.000101053731
 134     -0.000206096619
 135     -0.000040716760
 136     -0.000006191462
 137     -0.000004811370
 138      0.000017531565
 139      0.000069263519
 140      0.000013183656
 141     -0.000138184116
 142      0.000403846734
 143     -0.000001847117
 144      0.000028258738
 145      0.000018735555
 146      0.000006431467
 147     -0.000112599479
 148     -0.000053119081
 149      0.000003750916
 150      0.000000339435
 151      0.000000861206
 152      0.000006669183
 153     -0.000008035114
 Ene=  -0.25998649485102E+02
 Spin= Alpha
 Occup=    0.000000
   1      0.000000000000
   2      0.000000000000
   3      0.000000000000
   4      0.000000000000
   5      0.000000000000
   6      0.000000000000
   7      0.000000000000
   8      0.000000000000
   9      0.000000000000
  10      0.000000000000
  11      0.000000000000
  12      0.000000000000
  13      0.000000000000
  14      0.000000000000
  15      0.000000000000
  16      0.000000000000
  17      0.000000000000
  18      0.000000000000
  19      0.000000000000
  20      0.000000000000
  21      0.000000000000
  22      0.000000000000
  23      0.000000000000
  24      0.000000000000
  25      0.000000000000
  26      0.000000000000
  27      0.000000000000
  28      0.000000000000
  29      0.000000000000
  30      0.000000000000
  31      0.000000000000
  32      0.000000000000
  33      0.000000000000
  34      0.000000000000
  35      0.000000000000
  36      0.000000000000
  37      0.000000000000
  38      0.000000000000
  39      0.000000000000
  40      0.000000000000
  41      0.000000000000
  42      0.000000000000
  43      0.000000000000
  44      0.000000000000
  45      0.000000000000
  46      0.000000000000
  47      0.000000000000
  48      0.000000000000
  49      0.000000000000
  50      0.000000000000
  51      0.000000000000
  52      0.000000000000
  53      0.000000000000
  54      0.000000000000
  55      0.000000000000
  56      0.000000000000
  57      0.000000000000
  58      0.000000000000
  59      0.000000000000
  60      0.000000000000
  61      0.000000000000
  62      0.000000000000
  63      0.000000000000
  64      0.000000000000
  65      0.000000000000
  66      0.000000000000
  67      0.000000000000
  68      0.000000000000
  69      0.000000000000
  70      0.000000000000
  71      0.000000000000
  72      0.000000000000
  73      0.000000000000
  74      0.000000000000
  75      0.000000000000
  76      0.000000000000
  77      0.000000000000
  78      0.000000000000
  79      0.000000000000
  80      0.000000000000
  81      0.000000000000
  82      0.000000000000
  83      0.000000000000
  84      0.000000000000
  85      0.000000000000
  86      0.000000000000
  87      0.000000000000
  88      0.000000000000
  89      0.000000000000
  90      0.000000000000
  91      0.000000000000
  92      0.000000000000
  93      0.000000000000
  94      0.000000000000
  95      0.000000000000
  96      0.000000000000
  97      0.000000000000
  98      0.000000000000
  99      0.000000000000
 100      0.000000000000
 101      0.000000000000
 102      0.000000000000
 103      0.000000000000
 104      0.000000000000
 105      0.000000000000
 106      0.000000000000
 107      0.000000000000
 108      0.000000000000
 109      0.000000000000
 110      0.000000000000
 111      0.000000000000
 112      0.000000000000
 113      0.000000000000
 114      0.000000000000
 115      0.000000000000
 116      0.000000000000
 117      0.000000000000
 118      0.000000000000
 119      0.000000000000
 120      0.000000000000
 121      0.000000000000
 122      0.000000000000
 123      0.000000000000
 124      0.000000000000
 125      0.000000000000
 126      0.000000000000
 127      0.000000000000
 128      0.000000000000
 129      0.000000000000
 130      0.000000000000
 131      0.000000000000
 132      0.000000000000
 133      0.000000000000
 134      0.000000000000
 135      0.000000000000
 136      0.000000000000
 137      0.000000000000
 138      0.000000000000
 139      0.000000000000
 140      0.000000000000
 141      0.000000000000
 142      0.000000000000
 143      0.000000000000
 144      0.000000000000
 145      0.000000000000
 146      0.000000000000
 147      0.000000000000
 148      0.000000000000
 149      0.000000000000
 150      0.000000000000
 151      0.000000000000
 152      0.000000000000
 153      0.000000000000
 Ene=  -0.25998649485101E+02
 Spin= Alpha
 Occup=    1.000000
   1      0.000000049640
   2      0.000000026596
   3     -0.000000143223
   4     -0.000000109735
   5      0.000000055206
   6      0.000000032257
   7     -0.000000033184
   8     -0.000000002212
   9      0.000000007805
  10     -0.986831543370
  11     -0.036408782067
  12     -0.041472814200
  13     -0.015428382320
  14     -0.000569232835
  15     -0.000648406241
  16     -0.011506675145
  17     -0.000424512401
  18     -0.000483557534
  19      0.003692522340
  20      0.000136212907
  21      0.000155148813
  22      0.000000455718
  23      0.000000954552
  24     -0.000006881563
  25      0.000000324779
  26     -0.000000211845
  27     -0.000001271895
  28     -0.000002827361
  29      0.000019812055
  30     -0.000000939105
  31      0.000000587139
  32     -0.003744659530
  33     -0.000138365795
  34     -0.000157345413
  35      0.000034696506
  36      0.000006921035
  37      0.000001184617
  38     -0.000048328846
  39     -0.000013518755
  40     -0.000001487253
  41     -0.000003115042
  42     -0.000010705911
  43      0.000076007858
  44      0.000296431355
  45     -0.000085314392
  46     -0.000003892987
  47      0.000001612181
  48     -0.000021429669
  49     -0.000003857448
  50      0.000021465939
  51      0.000049278479
  52      0.000004869202
  53     -0.000008676701
  54      0.000000113302
  55     -0.000000377300
  56      0.000046921044
  57     -0.000190515239
  58      0.001708509968
  59      0.000052765240
  60      0.000000697644
  61      0.000011334640
  62     -0.001175724763
  63     -0.000050835034
  64      0.000002180588
  65     -0.000247112951
  66     -0.000019376560
  67      0.000010305407
  68     -0.000010046262
  69     -0.000002265302
  70     -0.000046921185
  71      0.000190502584
  72     -0.001708401535
  73      0.000053433402
  74      0.000003223335
  75     -0.000006877022
  76     -0.001171958961
  77     -0.000035812809
  78     -0.000100788796
  79      0.000243491550
  80      0.000011196456
  81      0.000046619635
  82      0.000007353888
  83      0.000004036048
  84      0.000010704572
  85     -0.000075990015
  86     -0.000296506520
  87     -0.000084936255
  88     -0.000002382179
  89     -0.000008756879
  90     -0.000019810465
  91      0.000002364342
  92     -0.000023187028
  93     -0.000047729201
  94     -0.000001364150
  95     -0.000015705321
  96      0.000001038806
  97     -0.000000375643
  98      0.000000002186
  99      0.000000009383
 100     -0.000000082048
 101      0.000020009848
 102      0.000000737922
 103      0.000000841368
 104      0.000285858649
 105      0.000010493428
 106      0.000012023373
 107     -0.000000259364
 108     -0.000016673917
 109      0.000018316606
 110     -0.000001402681
 111     -0.000000013316
 112     -0.000000001140
 113      0.000000008931
 114     -0.000000006555
 115      0.000015801043
 116      0.000000588322
 117      0.000000659485
 118     -0.000103538309
 119     -0.000003813970
 120     -0.000004348979
 121      0.000000397545
 122     -0.000016889596
 123      0.000009334440
 124     -0.000001013518
 125     -0.000000370556
 126     -0.000000004963
 127     -0.000000055357
 128     -0.000000044678
 129      0.000020004899
 130      0.000000729559
 131      0.000000835438
 132      0.000285663313
 133      0.000010494799
 134      0.000011934762
 135     -0.000002342128
 136      0.000010966460
 137      0.000022123981
 138     -0.000000506402
 139      0.000001339265
 140      0.000000004035
 141     -0.000000043709
 142      0.000000151291
 143      0.000015784420
 144      0.000000591422
 145      0.000000675036
 146     -0.000103465323
 147     -0.000003856181
 148     -0.000004380556
 149     -0.000001868118
 150      0.000013652779
 151      0.000013515502
 152     -0.000000061222
 153      0.000001073630
 Ene=  -0.25986345905808E+02
 Spin= Alpha
 Occup=    1.000000
   1      0.000000124195
   2      0.000000066330
   3     -0.000000379716
   4     -0.000000279424