[Molden Format]
[Title]
generated by TRESC, real part1 of MOs of job SCN
 
[Atoms] AU
 S   1  16  -17.2278192557   -6.3208121784    0.0000000000
 C   2   6  -20.3490796710   -6.3208121784    0.0000000000
 N   3   7  -22.5353603590   -6.3208121784    0.0000000000
[GTO]
  1 0
 s  5 1.0
    10081.3659290000        0.0067330718
     1468.8676987000        0.0423201277
      327.2465016600        0.1866835343
       90.5285201140        0.4849802687
       27.5058308280        0.4517376429
 s  3 1.0
       46.3853988360       -0.0950589434
        5.0228188449        0.5843701906
        2.0306206045        0.5413909427
 s  1 1.0
        0.3606627882        1.0000000000
 s  1 1.0
        0.1371410729        1.0000000000
 p  5 1.0
      604.8788900300        0.0002353489
      140.0897861900        0.0017386166
       44.4994657800        0.0077865988
       16.4748871580        0.0220140918
        6.5229645048        0.0378945448
 p  5 1.0
      270.9504306400        0.0092081513
       62.5377853170        0.0653131413
       19.3546142200        0.2445470601
        6.7163477485        0.4820783852
        2.4098646724        0.3917477785
 p  1 1.0
        0.6191509478        1.0000000000
 p  1 1.0
        0.1701457548        1.0000000000
 d  1 1.0
        0.5500000000        1.0000000000
 
  2 0
 s  5 1.0
     1231.7975026000        0.0058423196
      185.5974766200        0.0415113222
       42.0875016200        0.1832849990
       11.6300369400        0.4683526005
        3.5840894779        0.4430601820
 s  1 1.0
        0.4029351893        1.0000000000
 s  1 1.0
        0.1309419451        1.0000000000
 p  3 1.0
        9.4821246358        0.0381720490
        2.0121097169        0.2099973699
        0.5481253660        0.5104097902
 p  1 1.0
        0.1527756940        1.0000000000
 d  1 1.0
        0.8000000000        1.0000000000
 
  3 0
 s  5 1.0
     1706.0150550000        0.0058639453
      255.9938356800        0.0413450288
       58.1565771970        0.1820914202
       16.1430707430        0.4678591214
        4.9963209539        0.4434151324
 s  1 1.0
        0.5882550288        1.0000000000
 s  1 1.0
        0.1877013255        1.0000000000
 p  3 1.0
       13.5897862110        0.0400190920
        2.9274822154        0.2175789499
        0.7994670210        0.5117738303
 p  1 1.0
        0.2195247995        1.0000000000
 d  1 1.0
        1.0000000000        1.0000000000
 
[5D]
[7F]
[9G]
[MO]
 Ene=  -0.89134385274675E+02
 Spin= Alpha
 Occup=    1.000000
   1      0.970201685749
   2      0.022853913092
   3     -0.010670800741
   4      0.003831494968
   5      0.010431611366
   6      0.000000000001
   7     -0.000000000000
   8     -0.000887667249
   9     -0.000000000000
  10      0.000000000000
  11      0.000881686721
  12      0.000000000000
  13     -0.000000000000
  14      0.000465222436
  15     -0.000000000000
  16      0.000000000000
  17      0.000211012266
  18      0.000000000000
  19     -0.000000384157
  20     -0.000364586942
  21      0.000000000000
  22     -0.000124847662
  23     -0.000339399177
  24     -0.004292027121
  25      0.000475961103
  26     -0.000000000000
  27     -0.000000000000
  28      0.005177891929
  29      0.000000000000
  30      0.000000000000
  31     -0.000530196614
  32      0.000000000000
  33      0.000000011595
  34      0.000918300396
  35     -0.000000000000
  36      0.000124061388
  37     -0.001505906513
  38      0.007452196996
  39     -0.000720195225
  40      0.000000000000
  41      0.000000000000
  42      0.002414216665
  43     -0.000000000000
  44     -0.000000000000
  45      0.000052244921
  46      0.000000000000
  47      0.000000000726
  48     -0.000090492542
  49     -0.000000000000
 Ene=  -0.89129318235879E+02
 Spin= Alpha
 Occup=    0.000000
   1      0.000000000119
   2      0.000000000003
   3     -0.000000000001
   4      0.000000000000
   5     -0.000000000215
   6      0.000000000000
   7      0.000000000928
   8      0.000000000010
   9     -0.000000000000
  10     -0.000000000040
  11     -0.000000000002
  12      0.000000000000
  13      0.000000000007
  14      0.000000000001
  15     -0.000000000000
  16     -0.000000000003
  17      0.000000000002
  18      0.000000000000
  19      0.000000000002
  20      0.000000000001
  21     -0.000000000000
  22      0.000000000000
  23     -0.000000000000
  24      0.000000000000
  25     -0.000000000000
  26      0.000000000000
  27     -0.000000000000
  28      0.000000000000
  29      0.000000000000
  30      0.000000000001
  31      0.000000000000
  32     -0.000000000000
  33     -0.000000000000
  34     -0.000000000000
  35     -0.000000000000
  36     -0.000000000000
  37      0.000000000000
  38      0.000000000000
  39      0.000000000000
  40     -0.000000000000
  41     -0.000000000000
  42      0.000000000000
  43     -0.000000000000
  44     -0.000000000000
  45     -0.000000000000
  46     -0.000000000000
  47     -0.000000000000
  48      0.000000000000
  49     -0.000000000000
 Ene=  -0.14449200546499E+02
 Spin= Alpha
 Occup=    1.000000
   1     -0.000047703390
   2      0.000394122330
   3     -0.001964314753
   4     -0.010105684005
   5      0.011907607419
   6     -0.000000000000
   7      0.000000000000
   8     -0.000922683954
   9      0.000000000000
  10     -0.000000000000
  11      0.001064702712
  12      0.000000000000
  13      0.000000000000
  14      0.005881394254
  15     -0.000000000000
  16     -0.000000000000
  17      0.000449224807
  18     -0.000000000000
  19     -0.000000061982
  20     -0.000777935451
  21      0.000000000000
  22     -0.000296603092
  23     -0.001824849390
  24     -0.021200043569
  25     -0.005467715976
  26     -0.000000000000
  27     -0.000000000000
  28      0.029203464837
  29      0.000000000000
  30      0.000000000000
  31     -0.001355582824
  32     -0.000000000000
  33      0.000004682034
  34      0.002337005558
  35     -0.000000000000
  36     -0.990463443754
  37     -0.045005996415
  38      0.054285230608
  39     -0.007628596757
  40     -0.000000000000
  41      0.000000000000
  42      0.014526337492
  43     -0.000000000000
  44      0.000000000000
  45      0.000721403683
  46     -0.000000000000
  47     -0.000069703750
  48     -0.001086746471
  49      0.000000000000
 Ene=  -0.14441700118360E+02
 Spin= Alpha
 Occup=    0.000000
   1     -0.000000000000
   2      0.000000000000
   3     -0.000000000000
   4     -0.000000000001
   5      0.000000000050
   6     -0.000000000000
   7      0.000000000000
   8     -0.000000000002
   9      0.000000000000
  10     -0.000000000000
  11      0.000000000000
  12     -0.000000000000
  13      0.000000000000
  14      0.000000000001
  15      0.000000000000
  16     -0.000000000000
  17     -0.000000000005
  18      0.000000000000
  19     -0.000000000007
  20     -0.000000000003
  21     -0.000000000000
  22     -0.000000000000
  23      0.000000000000
  24     -0.000000000003
  25     -0.000000000001
  26      0.000000000000
  27     -0.000000000000
  28      0.000000000003
  29     -0.000000000000
  30      0.000000000000
  31     -0.000000000013
  32      0.000000000000
  33     -0.000000000017
  34     -0.000000000007
  35      0.000000000000
  36     -0.000000000094
  37     -0.000000000005
  38      0.000000000006
  39     -0.000000000003
  40      0.000000000000
  41      0.000000000000
  42      0.000000000002
  43      0.000000000000
  44     -0.000000000000
  45      0.000000000358
  46      0.000000000000
  47      0.000000000483
  48      0.000000000206
  49     -0.000000000000
 Ene=  -0.10335419712008E+02
 Spin= Alpha
 Occup=    0.000000
   1     -0.000000000000
   2      0.000000000000
   3      0.000000000001
   4     -0.000000000002
   5     -0.000000000705
   6     -0.000000000000
   7     -0.000000000000
   8      0.000000000005
   9      0.000000000000
  10      0.000000000000
  11     -0.000000000005
  12     -0.000000000000
  13     -0.000000000000
  14      0.000000000002
  15      0.000000000000
  16      0.000000000000
  17     -0.000000000012
  18      0.000000000000
  19     -0.000000000017
  20     -0.000000000007
  21      0.000000000000
  22     -0.000000000060
  23     -0.000000000005
  24      0.000000000001
  25      0.000000000006
  26     -0.000000000000
  27      0.000000000000
  28      0.000000000001
  29     -0.000000000000
  30     -0.000000000000
  31     -0.000000000142
  32      0.000000000000
  33     -0.000000000193
  34     -0.000000000085
  35      0.000000000000
  36      0.000000000000
  37      0.000000000002
  38      0.000000000002
  39      0.000000000006
  40      0.000000000000
  41      0.000000000000
  42      0.000000000001
  43      0.000000000000
  44      0.000000000000
  45      0.000000000038
  46      0.000000000000
  47      0.000000000052
  48      0.000000000024
  49     -0.000000000000
 Ene=  -0.10332642044930E+02
 Spin= Alpha
 Occup=    1.000000
   1     -0.000078783072
   2      0.000605774425
   3     -0.001544232659
   4      0.022112330786
   5      0.034434261915
   6     -0.000000000000
   7     -0.000000000000
   8     -0.002688543032
   9      0.000000000000
  10     -0.000000000000
  11      0.002376476132
  12      0.000000000000
  13     -0.000000000000
  14     -0.011293708348
  15      0.000000000000
  16      0.000000000000
  17      0.000979987339
  18      0.000000000000
  19      0.000000433388
  20     -0.001698399838
  21     -0.000000000000
  22      0.989722559891
  23      0.049042790335
  24     -0.002140973913
  25     -0.002282105317
  26     -0.000000000000
  27     -0.000000000000
  28     -0.038557011815
  29      0.000000000000
  30     -0.000000000000
  31     -0.001993865012
  32      0.000000000000
  33     -0.000010161529
  34      0.003477204306
  35      0.000000000000
  36     -0.000721131892
  37      0.000747356403
  38     -0.042853867380
  39     -0.002839753171
  40     -0.000000000000
  41     -0.000000000000
  42     -0.017195427056
  43     -0.000000000000
  44      0.000000000000
  45      0.000424904867
  46     -0.000000000000
  47      0.000002083284
  48     -0.000740821465
  49      0.000000000000
 Ene=  -0.81254934129679E+01
 Spin= Alpha
 Occup=    1.000000
   1     -0.301957638434
   2      0.968140425431
   3      0.049377029156
   4     -0.012752360067
   5      0.001593563045
   6      0.000000000000
   7      0.000000000000
   8     -0.007735165620
   9     -0.000000000000
  10      0.000000000000
  11     -0.002239932311
  12      0.000000000000
  13      0.000000000000
  14     -0.001774648807
  15     -0.000000000000
  16     -0.000000000000
  17     -0.000928381442
  18      0.000000000000
  19      0.000327084108
  20      0.000844249396
  21      0.000000000000
  22      0.000099791034
  23      0.000901770370
  24      0.010571308961
  25     -0.001777632300
  26     -0.000000000000
  27      0.000000000000
  28     -0.013517856520
  29      0.000000000000
  30     -0.000000000000
  31      0.000845170802
  32      0.000000000000
  33     -0.000008403795
  34     -0.001444255560
  35     -0.000000000000
  36     -0.000233351087
  37      0.002956937432
  38     -0.018536475097
  39      0.001007068146
  40      0.000000000000
  41     -0.000000000000
  42     -0.005855301670
  43     -0.000000000000
  44      0.000000000000
  45     -0.000029203133
  46      0.000000000000
  47      0.000000761121
  48      0.000048804033
  49     -0.000000000000
 Ene=  -0.81208716584438E+01
 Spin= Alpha
 Occup=    0.000000
   1      0.000000005173
   2     -0.000000016593
   3     -0.000000000795
   4      0.000000000188
   5     -0.000000051014
   6      0.000000000000
   7      0.000000000000
   8     -0.000000001849
   9      0.000000000000
  10      0.000000000000
  11     -0.000000000343
  12      0.000000000000
  13      0.000000000000
  14      0.000000000162
  15     -0.000000000000
  16     -0.000000000000
  17      0.000000000012
  18      0.000000000000
  19     -0.000000000001
  20      0.000000000005
  21      0.000000000000
  22      0.000000000008
  23     -0.000000000026
  24     -0.000000000050
  25      0.000000000011
  26     -0.000000000000
  27      0.000000000000
  28      0.000000000152
  29      0.000000000000
  30      0.000000000000
  31      0.000000000015
  32     -0.000000000000
  33      0.000000000002
  34     -0.000000000023
  35      0.000000000000
  36     -0.000000000000
  37     -0.000000000003
  38      0.000000000167
  39      0.000000000018
  40      0.000000000000
  41     -0.000000000000
  42      0.000000000053
  43     -0.000000000000
  44     -0.000000000000
  45     -0.000000000015
  46     -0.000000000000
  47     -0.000000000014
  48      0.000000000003
  49      0.000000000000
 Ene=  -0.60659191798223E+01
 Spin= Alpha
 Occup=    0.835564
   1     -0.001370728036
   2      0.004785384898
   3     -0.001633787901
   4      0.000283936287
   5      0.122077400372
   6      0.000000000002
   7     -0.000000000001
   8      0.510519824671
   9      0.000000000007
  10     -0.000000000003
  11      0.027981407680
  12      0.000000000000
  13     -0.000000000000
  14     -0.004485848917
  15     -0.000000000000
  16      0.000000000000
  17      0.000527624060
  18      0.000000000000
  19      0.000001968944
  20     -0.000918475134
  21     -0.000000000000
  22     -0.000098365023
  23      0.000148645413
  24     -0.004242690034
  25      0.000869718338
  26     -0.000000000000
  27      0.000000000000
  28      0.003397011196
  29      0.000000000000
  30     -0.000000000000
  31     -0.000737669775
  32      0.000000000000
  33     -0.000001484753
  34      0.001281135420
  35     -0.000000000000
  36      0.000108090110
  37     -0.001302493960
  38      0.005462022659
  39     -0.000783100821
  40     -0.000000000000
  41     -0.000000000000
  42      0.001662025163
  43     -0.000000000000
  44      0.000000000000
  45      0.000123336801
  46      0.000000000000
  47      0.000000175823
  48     -0.000214033265
  49     -0.000000000000
 Ene=  -0.60592581916424E+01
 Spin= Alpha
 Occup=    0.322129
   1     -0.000623809529
   2      0.002178358251
   3     -0.000742841670
   4      0.000124514031
   5      0.046584103516
   6      0.000000000001
   7     -0.000000000000
   8      0.233625463506
   9      0.000000000003
  10     -0.000000000001
  11      0.012775464090
  12      0.000000000000
  13     -0.000000000000
  14     -0.002035731520
  15     -0.000000000000
  16      0.000000000000
  17      0.000240602687
  18      0.000000000000
  19      0.000000822275
  20     -0.000418881218
  21     -0.000000000000
  22     -0.000043816898
  23      0.000066977188
  24     -0.001924753056
  25      0.000396285369
  26     -0.000000000000
  27      0.000000000000
  28      0.001546924431
  29      0.000000000000
  30     -0.000000000000
  31     -0.000334131936
  32      0.000000000000
  33     -0.000000686427
  34      0.000580322133
  35     -0.000000000000
  36      0.000048936528
  37     -0.000590280013
  38      0.002482512327
  39     -0.000354265616
  40     -0.000000000000
  41      0.000000000000
  42      0.000755038903
  43     -0.000000000000
  44      0.000000000000
  45      0.000055771806
  46      0.000000000000
  47      0.000000081810
  48     -0.000096786891
  49     -0.000000000000
 Ene=  -0.60439163646861E+01
 Spin= Alpha
 Occup=    0.918980
   1      0.001853006451
   2     -0.006473876807
   3      0.002200020517
   4     -0.000337569213
   5     -0.077349034644
   6     -0.000000000002
   7      0.000000000001
   8     -0.702661016827
   9     -0.000000000018
  10      0.000000000004
  11     -0.038226807720
  12     -0.000000000001
  13      0.000000000000
  14      0.006005722327
  15      0.000000000000
  16     -0.000000000000
  17     -0.000718249795
  18     -0.000000000000
  19     -0.000002696455
  20      0.001250513273
  21      0.000000000000
  22      0.000123257724
  23     -0.000193296839
  24      0.005674609871
  25     -0.001178690152
  26      0.000000000000
  27     -0.000000000000
  28     -0.004600594928
  29     -0.000000000000
  30      0.000000000000
  31      0.000981457720
  32     -0.000000000000
  33      0.000002052829
  34     -0.001704743684
  35      0.000000000000
  36     -0.000143568874
  37      0.001735960871
  38     -0.007350475094
  39      0.001037341326
  40      0.000000000000
  41     -0.000000000000
  42     -0.002233202652
  43      0.000000000000
  44     -0.000000000000
  45     -0.000163170663
  46     -0.000000000000
  47     -0.000000240466
  48      0.000283184205
  49      0.000000000000
 Ene=  -0.60357934081357E+01
 Spin= Alpha
 Occup=    0.237555
   1      0.000531948232
   2     -0.001858514266
   3      0.000629433354
   4     -0.000092029124
   5     -0.013460703232
   6     -0.000000000000
   7      0.000000000001
   8     -0.202920694336
   9     -0.000000000001
  10      0.000000000005
  11     -0.011011910037
  12     -0.000000000000
  13      0.000000000000
  14      0.001716799380
  15      0.000000000000
  16     -0.000000000000
  17     -0.000206873980
  18     -0.000000000000
  19     -0.000000852481
  20      0.000359997856
  21      0.000000000000
  22      0.000034128722
  23     -0.000054034096
  24      0.001621939706
  25     -0.000337584866
  26      0.000000000000
  27     -0.000000000000
  28     -0.001320892548
  29     -0.000000000000
  30      0.000000000000
  31      0.000279947013
  32     -0.000000000000
  33      0.000000588210
  34     -0.000486266403
  35      0.000000000000
  36     -0.000040918186
  37      0.000495475163
  38     -0.002105618782
  39      0.000295281443
  40      0.000000000000
  41     -0.000000000000
  42     -0.000639404509
  43      0.000000000000
  44     -0.000000000000
  45     -0.000046443290
  46     -0.000000000000
  47     -0.000000068026
  48      0.000080604236
  49      0.000000000000
 Ene=  -0.60317066994864E+01
 Spin= Alpha
 Occup=    0.148153
   1      0.000811772490
   2     -0.002835586023
   3      0.000957343338
   4     -0.000136767389
   5     -0.014667549370
   6     -0.000000000002
   7      0.000000000005
   8     -0.310425011104
   9     -0.000000000034
  10      0.000000000040
  11     -0.016827567655
  12     -0.000000000002
  13      0.000000000002
  14      0.002613012273
  15      0.000000000000
  16     -0.000000000000
  17     -0.000316421224
  18     -0.000000000000
  19     -0.000001024795
  20      0.000550213528
  21      0.000000000000
  22      0.000050849680
  23     -0.000080541643
  24      0.002468961296
  25     -0.000513185294
  26      0.000000000000
  27     -0.000000000000
  28     -0.002014984576
  29     -0.000000000000
  30      0.000000000000
  31      0.000425676169
  32     -0.000000000000
  33      0.000000902308
  34     -0.000739395365
  35      0.000000000000
  36     -0.000062185501
  37      0.000753632670
  38     -0.003208610450
  39      0.000448386577
  40      0.000000000000
  41      0.000000000000
  42     -0.000974164760
  43      0.000000000000
  44     -0.000000000000
  45     -0.000070545468
  46     -0.000000000000
  47     -0.000000105611
  48      0.000122434749
  49      0.000000000000
 Ene=  -0.60312095900908E+01
 Spin= Alpha
 Occup=    0.537619
   1     -0.000089719308
   2      0.000312863140
   3     -0.000104423809
   4      0.000015156848
   5      0.002316361790
   6      0.000000000001
   7     -0.000000000003
   8      0.034172951858
   9      0.000000000021
  10     -0.000000000024
  11      0.001854682008
  12      0.000000000001
  13     -0.000000000001
  14     -0.000287637072
  15     -0.000000000000
  16      0.000000000000
  17      0.000035155387
  18      0.000000000000
  19      0.000000512391
  20     -0.000060883407
  21     -0.000000000000
  22     -0.000005376611
  23      0.000008188833
  24     -0.000272210704
  25      0.000055500122
  26     -0.000000000000
  27      0.000000000000
  28      0.000221933539
  29      0.000000000000
  30     -0.000000000000
  31     -0.000046909061
  32      0.000000000000
  33     -0.000000115280
  34      0.000081470511
  35     -0.000000000000
  36      0.000006845721
  37     -0.000083040844
  38      0.000353582389
  39     -0.000049286120
  40     -0.000000000000
  41     -0.000000000000
  42      0.000107406886
  43     -0.000000000000
  44      0.000000000000
  45      0.000007775285
  46      0.000000000000
  47      0.000000013983
  48     -0.000013493507
  49     -0.000000000000
 Ene=  -0.98271876195399E+00
 Spin= Alpha
 Occup=    1.000000
   1      0.014489567556
   2     -0.085891465739
   3      0.125185152891
   4      0.059476652231
   5      0.019421377524
   6     -0.000000000000
   7     -0.000000000000
   8      0.021675401103
   9      0.000000000000
  10      0.000000000000
  11     -0.036122788264
  12     -0.000000000000
  13     -0.000000000000
  14     -0.032497657512
  15      0.000000000000
  16     -0.000000000000
  17     -0.008941663441
  18      0.000000000000
  19      0.002113889201
  20      0.010551396410
  21      0.000000000000
  22     -0.199736048113
  23      0.384977949841
  24      0.065801085296
  25     -0.270436260227
  26     -0.000000000000
  27     -0.000000000000
  28     -0.034620791000
  29     -0.000000000000
  30     -0.000000000000
  31     -0.013953758382
  32      0.000000000000
  33      0.000488365895
  34      0.023028263138
  35      0.000000000000
  36     -0.230494511050
  37      0.453909326037
  38      0.140449131989
  39      0.293448832782
  40     -0.000000000000
  41      0.000000000000
  42      0.019544131792
  43     -0.000000000000
  44      0.000000000000
  45     -0.011197197002
  46     -0.000000000000
  47      0.002405266812
  48      0.013777733455
  49      0.000000000000
 Ene=  -0.96751056498747E+00
 Spin= Alpha
 Occup=    0.000000
   1      0.000000000344
   2     -0.000000002044
   3      0.000000002974
   4      0.000000001533
   5     -0.000000036675
   6      0.000000000000
   7      0.000000000001
   8      0.000000002752
   9      0.000000000000
  10     -0.000000000000
  11      0.000000000660
  12     -0.000000000000
  13     -0.000000000000
  14     -0.000000000568
  15     -0.000000000000
  16     -0.000000000000
  17     -0.000000029601
  18      0.000000000000
  19     -0.000000039413
  20     -0.000000016835
  21      0.000000000000
  22     -0.000000005192
  23      0.000000010076
  24      0.000000001427
  25     -0.000000009122
  26      0.000000000000
  27     -0.000000000000
  28     -0.000000000832
  29      0.000000000000
  30      0.000000000000
  31      0.000000011244
  32      0.000000000000
  33      0.000000015854
  34      0.000000007610
  35     -0.000000000000
  36     -0.000000006706
  37      0.000000013025
  38      0.000000004637
  39      0.000000005342
  40      0.000000000000
  41      0.000000000000
  42      0.000000000720
  43      0.000000000000
  44     -0.000000000000
  45     -0.000000030427
  46      0.000000000000
  47     -0.000000040606
  48     -0.000000017204
  49      0.000000000000
 Ene=  -0.85259700876326E+00
 Spin= Alpha
 Occup=    1.000000
   1      0.070603809351
   2     -0.422811656050
   3      0.638998044049
   4      0.250472427154
   5      0.069995704751
   6     -0.000000000001
   7     -0.000000000000
   8      0.060096803239
   9      0.000000000000
  10      0.000000000000
  11     -0.107485752133
  12     -0.000000000000
  13      0.000000000000
  14     -0.062446472343
  15     -0.000000000000
  16      0.000000000000
  17     -0.025929462938
  18      0.000000000000
  19      0.011389746002
  20      0.018315617337
  21      0.000000000000
  22     -0.064148249410
  23      0.136622557595
  24      0.003153115009
  25      0.384624079246
  26     -0.000000000000
  27     -0.000000000000
  28      0.055263747910
  29     -0.000000000000
  30     -0.000000000000
  31     -0.006115833540
  32     -0.000000000000
  33      0.000061793008
  34      0.010448647762
  35     -0.000000000000
  36      0.086622875111
  37     -0.179876586462
  38     -0.034520679424
  39     -0.092377868579
  40     -0.000000000000
  41     -0.000000000000
  42      0.005064508693
  43      0.000000000000
  44     -0.000000000000
  45      0.003515850879
  46      0.000000000000
  47     -0.000901044499
  48     -0.003985662558
  49     -0.000000000000
 Ene=  -0.82430958999907E+00
 Spin= Alpha
 Occup=    0.000000
   1      0.000000009534
   2     -0.000000057275
   3      0.000000086852
   4      0.000000036909
   5     -0.000000538265
   6      0.000000000000
   7      0.000000000003
   8      0.000000037687
   9      0.000000000000
  10     -0.000000000000
  11      0.000000013721
  12     -0.000000000000
  13     -0.000000000000
  14      0.000000001173
  15     -0.000000000000
  16     -0.000000000000
  17     -0.000000217523
  18      0.000000000000
  19     -0.000000286884
  20     -0.000000123082
  21      0.000000000000
  22     -0.000000006589
  23      0.000000013308
  24      0.000000001587
  25      0.000000037094
  26     -0.000000000000
  27      0.000000000000
  28      0.000000003720
  29      0.000000000000
  30     -0.000000000000
  31      0.000000013342
  32     -0.000000000000
  33      0.000000018382
  34      0.000000008123
  35     -0.000000000000
  36      0.000000008080
  37     -0.000000016218
  38     -0.000000005270
  39     -0.000000001211
  40     -0.000000000000
  41     -0.000000000000
  42      0.000000000592
  43     -0.000000000000
  44      0.000000000000
  45      0.000000015147
  46     -0.000000000000
  47      0.000000020214
  48      0.000000008854
  49     -0.000000000000
 Ene=  -0.53158392072167E+00
 Spin= Alpha
 Occup=    0.999995
   1     -0.041489357391
   2      0.255817195919
   3     -0.386346108878
   4     -0.375997630868
   5      0.319808639602
   6      0.000000000000
   7     -0.000000000000
   8      0.165841689091
   9     -0.000000000000
  10      0.000000000000
  11     -0.323535087606
  12      0.000000000000
  13      0.000000000000
  14     -0.253848945248
  15      0.000000000000
  16      0.000000000000
  17     -0.019347754032
  18     -0.000000000000
  19     -0.010403861818
  20      0.057804737412
  21      0.000000000000
  22     -0.146120442784
  23      0.322700797014
  24      0.128028990616
  25      0.345665888073
  26     -0.000000000000
  27     -0.000000000000
  28      0.161014918081
  29     -0.000000000000
  30     -0.000000000000
  31     -0.005705177380
  32     -0.000000000000
  33      0.000078627602
  34      0.009698060208
  35     -0.000000000000
  36      0.081075773779
  37     -0.183742253831
  38     -0.031383715285
  39      0.079733795978
  40     -0.000000000000
  41     -0.000000000000
  42      0.063427046254
  43     -0.000000000000
  44     -0.000000000000
  45     -0.001266523878
  46      0.000000000000
  47     -0.000909016495
  48      0.004316270543
  49     -0.000000000000
 Ene=  -0.51583119888162E+00
 Spin= Alpha
 Occup=    0.000008
   1      0.000000480374
   2     -0.000002965915
   3      0.000004472655
   4      0.000004610695
   5      0.000006025532
   6      0.000000000000
   7      0.000000000001
   8     -0.000002517164
   9      0.000000000000
  10     -0.000000000000
  11      0.000003351784
  12     -0.000000000000
  13     -0.000000000000
  14      0.000002811574
  15     -0.000000000000
  16     -0.000000000000
  17     -0.000000032205
  18      0.000000000000
  19     -0.000000256819
  20     -0.000000866553
  21      0.000000000000
  22      0.000001880064
  23     -0.000004152492
  24     -0.000001801606
  25     -0.000004049186
  26     -0.000000000000
  27     -0.000000000000
  28     -0.000002058139
  29     -0.000000000000
  30     -0.000000000000
  31      0.000000027929
  32     -0.000000000000
  33     -0.000000042418
  34     -0.000000115277
  35      0.000000000000
  36     -0.000001114785
  37      0.000002505871
  38      0.000000686682
  39     -0.000001565439
  40     -0.000000000000
  41     -0.000000000000
  42     -0.000000945793
  43     -0.000000000000
  44     -0.000000000000
  45      0.000000015320
  46     -0.000000000000
  47     -0.000000005652
  48     -0.000000086822
  49     -0.000000000000
 Ene=  -0.45550736163672E+00
 Spin= Alpha
 Occup=    0.999910
   1      0.000092974284
   2     -0.000577567601
   3      0.000888632681
   4      0.001155456246
   5      0.010854818163
   6      0.000000000000
   7      0.000000000000
   8     -0.000875253952
   9      0.000000000000
  10      0.000000000000
  11     -0.000105688275
  12     -0.000000000000
  13     -0.000000000000
  14      0.000004172397
  15     -0.000000000000
  16     -0.000000000000
  17      0.000056982382
  18      0.000000000000
  19      0.000024085076
  20     -0.000151995501
  21      0.000000000000
  22      0.000774565860
  23     -0.001719536115
  24     -0.000877483302
  25      0.000095670219
  26     -0.000000000000
  27     -0.000000000000
  28     -0.000604984265
  29     -0.000000000000
  30     -0.000000000000
  31     -0.000012418883
  32      0.000000000000
  33     -0.000001200451
  34      0.000025358068
  35      0.000000000000
  36     -0.000803636688
  37      0.001721854826
  38      0.001531867932
  39     -0.003012673315
  40     -0.000000000000
  41     -0.000000000000
  42     -0.001033033390
  43     -0.000000000000
  44     -0.000000000000
  45      0.000060059108
  46     -0.000000000000
  47      0.000009732108
  48     -0.000125986397
  49     -0.000000000000
 Ene=  -0.43632360527424E+00
 Spin= Alpha
 Occup=    0.999902
   1     -0.000014908140
   2      0.000093033026
   3     -0.000163048399
   4     -0.000220656956
   5     -0.003659502569
   6      0.000000000000
   7      0.000000000000
   8      0.000132065139
   9     -0.000000000000
  10      0.000000000000
  11      0.000315253381
  12      0.000000000000
  13     -0.000000000000
  14      0.000281254610
  15      0.000000000000
  16     -0.000000000000
  17     -0.000003570818
  18      0.000000000000