[Molden Format]
[Title]
generated by TRESC, real part2 of MOs of job SCN
 
[Atoms] AU
 S   1  16  -17.2278192557   -6.3208121784    0.0000000000
 C   2   6  -20.3490796710   -6.3208121784    0.0000000000
 N   3   7  -22.5353603590   -6.3208121784    0.0000000000
[GTO]
  1 0
 s  5 1.0
    10081.3659290000        0.0067330718
     1468.8676987000        0.0423201277
      327.2465016600        0.1866835343
       90.5285201140        0.4849802687
       27.5058308280        0.4517376429
 s  3 1.0
       46.3853988360       -0.0950589434
        5.0228188449        0.5843701906
        2.0306206045        0.5413909427
 s  1 1.0
        0.3606627882        1.0000000000
 s  1 1.0
        0.1371410729        1.0000000000
 p  5 1.0
      604.8788900300        0.0002353489
      140.0897861900        0.0017386166
       44.4994657800        0.0077865988
       16.4748871580        0.0220140918
        6.5229645048        0.0378945448
 p  5 1.0
      270.9504306400        0.0092081513
       62.5377853170        0.0653131413
       19.3546142200        0.2445470601
        6.7163477485        0.4820783852
        2.4098646724        0.3917477785
 p  1 1.0
        0.6191509478        1.0000000000
 p  1 1.0
        0.1701457548        1.0000000000
 d  1 1.0
        0.5500000000        1.0000000000
 
  2 0
 s  5 1.0
     1231.7975026000        0.0058423196
      185.5974766200        0.0415113222
       42.0875016200        0.1832849990
       11.6300369400        0.4683526005
        3.5840894779        0.4430601820
 s  1 1.0
        0.4029351893        1.0000000000
 s  1 1.0
        0.1309419451        1.0000000000
 p  3 1.0
        9.4821246358        0.0381720490
        2.0121097169        0.2099973699
        0.5481253660        0.5104097902
 p  1 1.0
        0.1527756940        1.0000000000
 d  1 1.0
        0.8000000000        1.0000000000
 
  3 0
 s  5 1.0
     1706.0150550000        0.0058639453
      255.9938356800        0.0413450288
       58.1565771970        0.1820914202
       16.1430707430        0.4678591214
        4.9963209539        0.4434151324
 s  1 1.0
        0.5882550288        1.0000000000
 s  1 1.0
        0.1877013255        1.0000000000
 p  3 1.0
       13.5897862110        0.0400190920
        2.9274822154        0.2175789499
        0.7994670210        0.5117738303
 p  1 1.0
        0.2195247995        1.0000000000
 d  1 1.0
        1.0000000000        1.0000000000
 
[5D]
[7F]
[9G]
[MO]
 Ene=   0.60396142566887E+00
 Spin= Alpha
 Occup=    0.000000
   1     -0.000038934198
   2      0.000255970306
   3     -0.001563642742
   4      0.025494987100
   5     -0.012096633010
   6      0.000000000001
   7     -0.000000000002
   8      0.003015770908
   9     -0.000000000000
  10      0.000000000001
  11     -0.007647142471
  12      0.000000000001
  13     -0.000000000003
  14     -0.007500973346
  15     -0.000000000001
  16      0.000000000002
  17     -0.004263655937
  18      0.000000000003
  19      0.005550167251
  20      0.001872164003
  21     -0.000000000001
  22      0.001007314880
  23     -0.000476007592
  24      0.002217893261
  25      0.008255472762
  26     -0.000000000000
  27      0.000000000000
  28     -0.040166332498
  29     -0.000000000000
  30      0.000000000000
  31     -0.001082715034
  32     -0.000000000000
  33      0.000288889829
  34      0.001593298430
  35      0.000000000000
  36      0.000224092154
  37     -0.001430928412
  38     -0.027053222758
  39      0.005641191462
  40      0.000000000000
  41     -0.000000000001
  42     -0.005735548106
  43     -0.000000000000
  44      0.000000000000
  45      0.000550332183
  46      0.000000000000
  47      0.000023070582
  48     -0.000996916077
  49     -0.000000000000
 Ene=   0.61151353347798E+00
 Spin= Alpha
 Occup=    0.000000
   1     -0.000068956513
   2      0.000473267205
   3     -0.003142060890
   4      0.038503963215
   5     -0.022946403385
   6      0.000000000000
   7     -0.000000000000
   8      0.004310763649
   9     -0.000000000000
  10      0.000000000000
  11     -0.009298391922
  12     -0.000000000000
  13     -0.000000000000
  14     -0.013312782246
  15     -0.000000000000
  16      0.000000000000
  17     -0.006071026439
  18      0.000000000000
  19      0.002945430849
  20      0.002331386087
  21      0.000000000000
  22      0.001260223374
  23      0.000016426715
  24     -0.000318012002
  25      0.011800056044
  26     -0.000000000000
  27      0.000000000000
  28     -0.057143280385
  29      0.000000000000
  30      0.000000000000
  31     -0.001461174994
  32     -0.000000000000
  33      0.000154971905
  34      0.002097532647
  35     -0.000000000000
  36      0.000223317937
  37     -0.001609553615
  38     -0.037569522285
  39      0.007673129071
  40     -0.000000000000
  41     -0.000000000000
  42     -0.007662553038
  43      0.000000000000
  44      0.000000000000
  45      0.000750804847
  46      0.000000000000
  47      0.000024128814
  48     -0.001357080743
  49      0.000000000000
 Ene=   0.62060163185043E+00
 Spin= Alpha
 Occup=    0.000000
   1     -0.000020410924
   2      0.000144431478
   3     -0.001037301171
   4      0.010521204729
   5     -0.007218370210
   6      0.000000000000
   7      0.000000000000
   8      0.001084198874
   9      0.000000000000
  10     -0.000000000000
  11     -0.001918424637
  12     -0.000000000000
  13      0.000000000000
  14     -0.004193509485
  15      0.000000000000
  16     -0.000000000000
  17     -0.001261398567
  18     -0.000000000000
  19     -0.000447599334
  20      0.000674084790
  21      0.000000000000
  22      0.000271575753
  23      0.000214100111
  24     -0.001065653142
  25      0.003045099446
  26      0.000000000000
  27     -0.000000000000
  28     -0.014716656107
  29      0.000000000000
  30     -0.000000000000
  31     -0.000334409911
  32      0.000000000000
  33     -0.000026767879
  34      0.000496786734
  35     -0.000000000000
  36      0.000031338236
  37     -0.000294036653
  38     -0.009423324291
  39      0.001854492989
  40     -0.000000000000
  41      0.000000000000
  42     -0.001829976835
  43      0.000000000000
  44     -0.000000000000
  45      0.000183479324
  46     -0.000000000000
  47      0.000006119926
  48     -0.000330551473
  49     -0.000000000000
 Ene=   0.63753058900705E+00
 Spin= Alpha
 Occup=    0.000000
   1     -0.000004732538
   2      0.000030058425
   3     -0.000124619245
   4      0.001512602514
   5     -0.000182172370
   6      0.000000000000
   7      0.000000000000
   8      0.000053838571
   9     -0.000000000000
  10     -0.000000000000
  11     -0.000165938307
  12      0.000000000000
  13      0.000000000000
  14     -0.000658669416
  15     -0.000000000000
  16     -0.000000000000
  17     -0.001068882608
  18     -0.000000000000
  19      0.001057593198
  20     -0.000618975280
  21     -0.000000000000
  22     -0.000109761593
  23      0.000922861764
  24     -0.000394142273
  25      0.000087310393
  26     -0.000000000000
  27     -0.000000000000
  28     -0.002168089455
  29      0.000000000000
  30      0.000000000000
  31     -0.000072860459
  32      0.000000000000
  33      0.000053970152
  34      0.000000126292
  35      0.000000000000
  36      0.000109607231
  37     -0.000460418571
  38     -0.001348463469
  39      0.000296604949
  40     -0.000000000000
  41      0.000000000000
  42     -0.000913930589
  43      0.000000000000
  44     -0.000000000000
  45      0.000000356463
  46     -0.000000000000
  47      0.000001237340
  48     -0.000003504814
  49     -0.000000000000
 Ene=   0.64245113706170E+00
 Spin= Alpha
 Occup=    0.000000
   1      0.000000036175
   2     -0.000000260294
   3      0.000002081928
   4     -0.000018730528
   5      0.000011824889
   6     -0.000000000000
   7      0.000000000000
   8     -0.000001269919
   9      0.000000000000
  10     -0.000000000000
  11      0.000001322146
  12     -0.000000000000
  13      0.000000000000
  14      0.000009252486
  15      0.000000000000
  16     -0.000000000000
  17     -0.000817137888
  18     -0.000000000000
  19     -0.001102527560
  20     -0.000473178023
  21      0.000000000000
  22      0.000000191646
  23     -0.000003907392
  24      0.000004997394
  25     -0.000003512827
  26      0.000000000000
  27     -0.000000000000
  28      0.000024160417
  29     -0.000000000000
  30      0.000000000000
  31     -0.000041759451
  32      0.000000000000
  33     -0.000056720210
  34     -0.000024832697
  35     -0.000000000000
  36     -0.000000343828
  37      0.000001557080
  38      0.000014878994
  39     -0.000002827632
  40     -0.000000000000
  41     -0.000000000000
  42      0.000005020038
  43      0.000000000000
  44      0.000000000000
  45     -0.000002032104
  46     -0.000000000000
  47     -0.000002496416
  48     -0.000000749602
  49      0.000000000000
 Ene=   0.64453343817867E+00
 Spin= Alpha
 Occup=    0.000000
   1     -0.000149772593
   2      0.001144426722
   3      0.095762920789
   4     -1.784751018584
   5      0.052338457873
   6     -0.000000000000
   7     -0.000000000000
   8     -0.012080313430
   9     -0.000000000000
  10      0.000000000000
  11      0.033812097052
  12      0.000000000000
  13     -0.000000000000
  14      0.968247608072
  15     -0.000000000000
  16      0.000000000000
  17     -0.047572033306
  18      0.000000000000
  19      0.026991741298
  20      0.019370363755
  21     -0.000000000000
  22      0.199873215882
  23     -1.584684632515
  24      0.491557865372
  25      0.370010993988
  26     -0.000000000000
  27     -0.000000000000
  28      2.464257844668
  29     -0.000000000000
  30      0.000000000000
  31      0.003151099894
  32     -0.000000000000
  33      0.002122593845
  34     -0.010414220223
  35      0.000000000000
  36     -0.197811727670
  37      0.788296317227
  38      1.661974749592
  39     -0.483594366233
  40     -0.000000000000
  41     -0.000000000000
  42      1.712903120504
  43      0.000000000000
  44      0.000000000000
  45      0.018011994888
  46     -0.000000000000
  47      0.002863390446
  48     -0.037883808625
  49     -0.000000000000
 Ene=   0.65071297660093E+00
 Spin= Alpha
 Occup=    0.000000
   1     -0.000000002750
   2      0.000000019969
   3     -0.000000022281
   4     -0.000001051913
   5     -0.000000695998
   6     -0.000000000000
   7     -0.000000000000
   8      0.000000042933
   9      0.000000000000
  10      0.000000000000
  11      0.000000037542
  12     -0.000000000000
  13     -0.000000000000
  14      0.000000575307
  15      0.000000000000
  16      0.000000000000
  17      0.000083109634
  18      0.000000000000
  19      0.000111999280
  20      0.000048074974
  21     -0.000000000000
  22      0.000000198583
  23     -0.000001475521
  24      0.000000231166
  25      0.000000588699
  26      0.000000000000
  27      0.000000000000
  28      0.000001603344
  29     -0.000000000000
  30      0.000000000000
  31      0.000004243434
  32     -0.000000000000
  33      0.000005724225
  34      0.000002464930
  35      0.000000000000
  36     -0.000000194217
  37      0.000000764138
  38      0.000001182389
  39     -0.000000332691
  40      0.000000000000
  41      0.000000000000
  42      0.000001553603
  43     -0.000000000000
  44     -0.000000000000
  45      0.000000143276
  46      0.000000000000
  47      0.000000160549
  48      0.000000013348
  49     -0.000000000000
 Ene=   0.70545140931171E+00
 Spin= Alpha
 Occup=    0.000000
   1      0.000136062468
   2     -0.000995481985
   3      0.011253532629
   4     -0.105180322379
   5      0.016984625999
   6     -0.000000000002
   7     -0.000000000001
   8      0.001381631232
   9      0.000000000001
  10      0.000000000000
  11     -0.009532319209
  12     -0.000000000002
  13     -0.000000000001
  14      0.066301776904
  15      0.000000000002
  16      0.000000000001
  17      0.000067824268
  18     -0.000000000000
  19      0.000360943468
  20     -0.000760581833
  21     -0.000000000001
  22      0.002984952615
  23     -0.022399824737
  24      0.057118267950
  25     -0.022824030284
  26      0.000000000000
  27      0.000000000000
  28      0.121367762610
  29     -0.000000000001
  30     -0.000000000000
  31     -0.000253987863
  32     -0.000000000000
  33      0.000026477434
  34      0.000391709851
  35     -0.000000000000
  36      0.000113644007
  37     -0.000409143167
  38      0.065833444743
  39      0.003403908396
  40      0.000000000002
  41      0.000000000001
  42      0.003377704973
  43     -0.000000000001
  44     -0.000000000000
  45     -0.000582932696
  46     -0.000000000000
  47     -0.000019868482
  48      0.001053320538
  49     -0.000000000000
 Ene=   0.71915150709553E+00
 Spin= Alpha
 Occup=    0.000000
   1      0.004099014038
   2     -0.029934499687
   3      0.434046795766
   4     -4.529687048718
   5     -0.194398940328
   6     -0.000000000002
   7     -0.000000000000
   8      0.168994729786
   9      0.000000000000
  10      0.000000000000
  11     -0.540892808969
  12     -0.000000000000
  13      0.000000000000
  14      2.952804946391
  15      0.000000000000
  16     -0.000000000000
  17     -0.055163831396
  18     -0.000000000000
  19      0.025522952360
  20      0.035946694514
  21     -0.000000000000
  22      0.164775029038
  23     -1.085978845216
  24      2.705007377574
  25     -0.997151209863
  26     -0.000000000000
  27     -0.000000000000
  28      5.200757415496
  29     -0.000000000000
  30      0.000000000000
  31     -0.035279810107
  32      0.000000000000
  33      0.001844870936
  34      0.056798319929
  35      0.000000000000
  36      0.008671107008
  37     -0.042501828058
  38      2.748482148816
  39      0.342504264931
  40      0.000000000000
  41     -0.000000000000
  42     -0.008185556958
  43      0.000000000000
  44      0.000000000000
  45     -0.018688543076
  46     -0.000000000000
  47     -0.000801725260
  48      0.034241644333
  49     -0.000000000000
 Ene=   0.72300501379796E+00
 Spin= Alpha
 Occup=    0.000000
   1     -0.000003809548
   2      0.000027766299
   3     -0.000452253700
   4      0.004926435423
   5      0.000534783704
   6     -0.000000000002
   7      0.000000000000
   8     -0.000219718032
   9      0.000000000001
  10     -0.000000000002
  11      0.000625261204
  12     -0.000000000004
  13      0.000000000006
  14     -0.003238164434
  15      0.000000000004
  16     -0.000000000006
  17      0.000086899898
  18      0.000000000003
  19     -0.000017869157
  20     -0.000058546492
  21     -0.000000000002
  22     -0.000191587429
  23      0.001224646432
  24     -0.003018067512
  25      0.001089366074
  26      0.000000000000
  27     -0.000000000000
  28     -0.005656442575
  29     -0.000000000001
  30      0.000000000002
  31      0.000046782117
  32     -0.000000000000
  33     -0.000001512837
  34     -0.000074727272
  35     -0.000000000000
  36     -0.000009999024
  37      0.000051484356
  38     -0.002967276944
  39     -0.000438785976
  40      0.000000000003
  41     -0.000000000005
  42      0.000057612057
  43     -0.000000000002
  44      0.000000000003
  45      0.000018238750
  46      0.000000000000
  47      0.000000854299
  48     -0.000033561865
  49     -0.000000000000
 Ene=   0.73196130632464E+00
 Spin= Alpha
 Occup=    0.000000
   1      0.000014378493
   2     -0.000103292463
   3      0.002727156162
   4     -0.033765940890
   5     -0.009395579950
   6     -0.000000000001
   7      0.000000000002
   8      0.002113328524
   9      0.000000000000
  10     -0.000000000001
  11     -0.004836874398
  12     -0.000000000001
  13      0.000000000003
  14      0.022581939798
  15      0.000000000001
  16     -0.000000000003
  17     -0.000874267672
  18      0.000000000002
  19      0.000104760280
  20      0.000852510909
  21     -0.000000000001
  22      0.001529370063
  23     -0.009176403262
  24      0.021930809358
  25     -0.007550726693
  26      0.000000000000
  27     -0.000000000000
  28      0.038873173026
  29     -0.000000000000
  30      0.000000000001
  31     -0.000454470546
  32      0.000000000000
  33      0.000007681282
  34      0.000738776761
  35     -0.000000000000
  36      0.000070331458
  37     -0.000407722661
  38      0.020038494649
  39      0.004162233021
  40      0.000000000001
  41     -0.000000000003
  42     -0.001209606082
  43     -0.000000000001
  44      0.000000000002
  45     -0.000088846656
  46      0.000000000000
  47     -0.000002358469
  48      0.000167579828
  49     -0.000000000000
 Ene=   0.73862809136169E+00
 Spin= Alpha
 Occup=    0.000000
   1      0.000006318333
   2     -0.000041736919
   3      0.003708933451
   4     -0.052307835474
   5     -0.022548775162
   6     -0.000000000000
   7      0.000000000000
   8      0.004047429518
   9     -0.000000000000
  10     -0.000000000000
  11     -0.008037064575
  12      0.000000000000
  13      0.000000000000
  14      0.035372353609
  15     -0.000000000000
  16     -0.000000000000
  17     -0.001568318304
  18      0.000000000000
  19      0.000374253607
  20      0.001967889215
  21     -0.000000000000
  22      0.002649785444
  23     -0.015275524544
  24      0.035418761640
  25     -0.011729419219
  26     -0.000000000000
  27     -0.000000000000
  28      0.060493895642
  29     -0.000000000000
  30      0.000000000000
  31     -0.000860098811
  32      0.000000000000
  33      0.000027433607
  34      0.001435350411
  35      0.000000000000
  36      0.000092322398
  37     -0.000624428138
  38      0.030807724907
  39      0.007916210195
  40     -0.000000000000
  41     -0.000000000000
  42     -0.002814630501
  43      0.000000000000
  44      0.000000000000
  45     -0.000095456876
  46      0.000000000000
  47     -0.000005364802
  48      0.000174155020
  49     -0.000000000000
 Ene=   0.74732496578282E+00
 Spin= Alpha
 Occup=    0.000000
   1      0.000004753371
   2     -0.000036349079
   3     -0.000684146764
   4      0.012505564090
   5      0.008085176637
   6      0.000000000000
   7     -0.000000000000
   8     -0.001221503604
   9      0.000000000000
  10     -0.000000000000
  11      0.002071706538
  12     -0.000000000000
  13      0.000000000000
  14     -0.008557840457
  15      0.000000000000
  16     -0.000000000000
  17      0.000498272091
  18      0.000000000000
  19     -0.000220166516
  20     -0.000676169859
  21     -0.000000000000
  22     -0.000733282960
  23      0.004041020177
  24     -0.008943935640
  25      0.002810835439
  26      0.000000000000
  27      0.000000000000
  28     -0.014610253423
  29      0.000000000000
  30      0.000000000000
  31      0.000262805269
  32      0.000000000000
  33     -0.000016798809
  34     -0.000441519234
  35     -0.000000000000
  36     -0.000012497338
  37      0.000129412872
  38     -0.007323725836
  39     -0.002420050149
  40      0.000000000000
  41     -0.000000000000
  42      0.000991819138
  43     -0.000000000000
  44      0.000000000000
  45      0.000007106457
  46      0.000000000000
  47      0.000004460917
  48     -0.000012449850
  49      0.000000000000
 Ene=   0.86074675593836E+00
 Spin= Alpha
 Occup=    0.000000
   1     -0.000084980054
   2      0.000633534530
   3     -0.003469277514
   4      0.006337091772
   5     -0.006102939164
   6     -0.000000000000
   7     -0.000000000000
   8     -0.000556488054
   9      0.000000000000
  10      0.000000000000
  11      0.004026706122
  12     -0.000000000000
  13     -0.000000000000
  14     -0.006544570596
  15      0.000000000000
  16      0.000000000000
  17     -0.001298168835
  18     -0.000000000000
  19      0.000111057698
  20      0.001928898101
  21     -0.000000000000
  22      0.000721728830
  23     -0.002942779004
  24     -0.001608442625
  25      0.002232601825
  26      0.000000000000
  27      0.000000000000
  28     -0.002830127286
  29     -0.000000000000
  30     -0.000000000000
  31     -0.000268444525
  32      0.000000000000
  33      0.000011650829
  34      0.000427470621
  35      0.000000000000
  36     -0.000448273451
  37      0.002040628883
  38     -0.002218781662
  39      0.005138144699
  40     -0.000000000000
  41     -0.000000000000
  42     -0.002455694542
  43      0.000000000000
  44      0.000000000000
  45      0.000146226676
  46     -0.000000000000
  47      0.000009498037
  48     -0.000276823273
  49     -0.000000000000
 Ene=   0.87665970709553E+00
 Spin= Alpha
 Occup=    0.000000
   1      0.000046243520
   2     -0.000345530018
   3      0.001941977590
   4     -0.003950720265
   5      0.002052531061
   6      0.000000000000
   7     -0.000000000000
   8      0.000449447163
   9     -0.000000000000
  10      0.000000000000
  11     -0.002384038394
  12      0.000000000000
  13     -0.000000000000
  14      0.003987271870
  15     -0.000000000000
  16      0.000000000000
  17      0.000723775010
  18     -0.000000000000
  19      0.000004113303
  20     -0.001104092705
  21      0.000000000000
  22     -0.000373230843
  23      0.001447278415
  24      0.001050280987
  25     -0.001205799531
  26     -0.000000000000
  27      0.000000000000
  28      0.002128303877
  29      0.000000000000
  30     -0.000000000000
  31      0.000145021304
  32      0.000000000000
  33      0.000005013082
  34     -0.000233871437
  35     -0.000000000000
  36      0.000241429709
  37     -0.001129072042
  38      0.001676322383
  39     -0.002842927792
  40      0.000000000000
  41     -0.000000000000
  42      0.001517660807
  43     -0.000000000000
  44      0.000000000000
  45     -0.000080015486
  46     -0.000000000000
  47     -0.000003642095
  48      0.000150777439
  49      0.000000000000
 Ene=   0.88133250477733E+00
 Spin= Alpha
 Occup=    0.000000
   1      0.000130226410
   2     -0.000973391421
   3      0.005495268474
   4     -0.011343514446
   5      0.004921060054
   6     -0.000000000000
   7      0.000000000000
   8      0.001377681065
   9     -0.000000000000
  10     -0.000000000000
  11     -0.006874510517
  12      0.000000000000
  13      0.000000000000
  14      0.011455715902
  15      0.000000000000
  16     -0.000000000000
  17      0.001970868518
  18      0.000000000000
  19     -0.000117942260
  20     -0.003184906875
  21     -0.000000000000
  22     -0.001043441087
  23      0.004011093512
  24      0.003033635328
  25     -0.003398168142
  26      0.000000000000
  27     -0.000000000000
  28      0.006238644404
  29     -0.000000000000
  30      0.000000000000
  31      0.000393920265
  32     -0.000000000000
  33     -0.000009545370
  34     -0.000668867059
  35      0.000000000000
  36      0.000680060985
  37     -0.003198389590
  38      0.004932604444
  39     -0.008086095131
  40     -0.000000000000
  41      0.000000000000
  42      0.004383371321
  43      0.000000000000
  44     -0.000000000000
  45     -0.000229769461
  46      0.000000000000
  47     -0.000012805781
  48      0.000425528395
  49      0.000000000000
 Ene=   0.88703491388196E+00
 Spin= Alpha
 Occup=    0.000000
   1     -0.000057360692
   2      0.000428917038
   3     -0.002438667791
   4      0.005196203006
   5     -0.001449422675
   6      0.000000000000
   7     -0.000000000000
   8     -0.000684923080
   9     -0.000000000000
  10      0.000000000000
  11      0.003118086672
  12      0.000000000000
  13     -0.000000000000
  14     -0.005221552966
  15     -0.000000000000
  16      0.000000000000
  17     -0.000876859955
  18     -0.000000000000
  19      0.000097153391
  20      0.001413910759
  21      0.000000000000
  22      0.000449085872
  23     -0.001696715956
  24     -0.001420738252
  25      0.001504408466
  26     -0.000000000000
  27      0.000000000000
  28     -0.002985922689
  29      0.000000000000
  30     -0.000000000000
  31     -0.000171767279
  32      0.000000000000
  33      0.000013346114
  34      0.000290745035
  35     -0.000000000000
  36     -0.000299741628
  37      0.001422849829
  38     -0.002359486605
  39      0.003565573371
  40      0.000000000000
  41     -0.000000000000
  42     -0.001989803590
  43     -0.000000000000
  44      0.000000000000
  45      0.000100921429
  46     -0.000000000000
  47      0.000008184313
  48     -0.000187068180
  49      0.000000000000
 Ene=   0.91519257190062E+00
 Spin= Alpha
 Occup=    0.000000
   1     -0.015236499544
   2      0.114337900417
   3     -0.681477724031
   4      1.724570384665
   5      0.607589905454
   6      0.000000000001
   7      0.000000000000
   8     -0.289992673706
   9     -0.000000000000
  10     -0.000000000000
  11      0.956509646657
  12     -0.000000000000
  13     -0.000000000000
  14     -1.675542070473
  15      0.000000000000
  16      0.000000000000
  17     -0.255394893672
  18     -0.000000000000
  19      0.014387946463
  20      0.408760295655
  21     -0.000000000000
  22      0.107057676626
  23     -0.350974205621
  24     -0.468287197618
  25      0.398934128775
  26     -0.000000000000
  27     -0.000000000000
  28     -1.218543417550
  29      0.000000000000
  30     -0.000000000000
  31     -0.045131246953
  32      0.000000000000
  33      0.001401869338
  34      0.074896169024
  35     -0.000000000000
  36     -0.082080857296
  37      0.415281220491
  38     -0.998325087369
  39      0.962186872107
  40      0.000000000000
  41     -0.000000000000
  42     -0.650180545452
  43     -0.000000000000
  44      0.000000000000
  45      0.026498519686
  46     -0.000000000000
  47      0.001562055870
  48     -0.049544251848
  49     -0.000000000000
 Ene=   0.92398633905134E+00
 Spin= Alpha
 Occup=    0.000000
   1      0.000000632322
   2     -0.000004749850
   3      0.000028753929
   4     -0.000076671840
   5     -0.000040862139
   6     -0.000000000000
   7      0.000000000000
   8      0.000013738866
   9      0.000000000000
  10     -0.000000000000
  11     -0.000041697042
  12     -0.000000000000
  13      0.000000000000
  14      0.000073856007
  15      0.000000000000
  16     -0.000000000000
  17      0.000009868258
  18      0.000000000000
  19     -0.000001876877
  20     -0.000018035247
  21     -0.000000000000
  22     -0.000004270363
  23      0.000013139927
  24      0.000020595109
  25     -0.000016708619
  26      0.000000000000
  27     -0.000000000000
  28      0.000057031628
  29     -0.000000000000
  30      0.000000000000
  31      0.000001887515
  32     -0.000000000000
  33      0.000000031447
  34     -0.000003004722
  35      0.000000000000
  36      0.000003490747
  37     -0.000018065614
  38      0.000047342092
  39     -0.000040094943
  40     -0.000000000000
  41      0.000000000000
  42      0.000028762032
  43      0.000000000000
  44     -0.000000000000
  45     -0.000001026075
  46      0.000000000000
  47      0.000000038414
  48      0.000002089584
  49     -0.000000000000
 Ene=   0.10437733944950E+01
 Spin= Alpha
 Occup=    0.000000
   1      0.013263880064
   2     -0.099087735057
   3      0.309900189032
   4      4.049696481301
   5     -0.076830754733
   6      0.000000000000
   7     -0.000000000000
   8      0.036337353545
   9      0.000000000000
  10      0.000000000000
  11     -0.136413786774
  12     -0.000000000000
  13     -0.000000000000
  14     -2.433449524112
  15      0.000000000000
  16      0.000000000000
  17     -0.253552317351
  18     -0.000000000000
  19      0.006622977556
  20      0.423700596310
  21     -0.000000000000
  22     -0.134906080909
  23      1.858378234504
  24      3.246176489616
  25     -0.572271809163
  26      0.000000000000
  27      0.000000000000
  28     -8.431365755104
  29     -0.000000000000
  30     -0.000000000000
  31     -0.069771668373
  32      0.000000000000
  33     -0.000528918583
  34      0.122083123643
  35     -0.000000000000
  36     -0.183629731799
  37      1.773029339923
  38    -10.936656407178
  39     -0.288171484616
  40     -0.000000000000
  41     -0.000000000000
  42     -3.440513107439
  43      0.000000000000
  44      0.000000000000
  45     -0.030171078451
  46     -0.000000000000
  47     -0.001650464400
  48      0.056111749884
  49     -0.000000000000
 Ene=   0.10514570257045E+01
 Spin= Alpha
 Occup=    0.000000
   1      0.000000003298
   2     -0.000000024801
   3      0.000000106856
   4      0.000000552326
   5     -0.000000485703
   6     -0.000000000000
   7      0.000000000001
   8      0.000000066480
   9      0.000000000000
  10     -0.000000000000
  11     -0.000000121510
  12     -0.000000000000
  13      0.000000000000
  14     -0.000000269967
  15      0.000000000000
  16     -0.000000000000
  17      0.000000210094
  18      0.000000000000
  19      0.000000318793
  20      0.000000178482
  21     -0.000000000000
  22     -0.000000027963
  23      0.000000341282
  24      0.000000666506
  25     -0.000000127517
  26      0.000000000000
  27     -0.000000000000
  28     -0.000001379392
  29     -0.000000000000
  30      0.000000000000
  31     -0.000000057784
  32     -0.000000000000
  33     -0.000000061449
  34     -0.000000004280
  35      0.000000000000
  36     -0.000000028505
  37      0.000000294464
  38     -0.000001878974
  39     -0.000000106189
  40     -0.000000000000
  41      0.000000000000
  42     -0.000000577279
  43      0.000000000000
  44     -0.000000000000
  45      0.000000003953
  46      0.000000000000
  47      0.000000014702
  48      0.000000018976
  49     -0.000000000000
 Ene=   0.12419049975974E+01
 Spin= Alpha
 Occup=    0.000000
   1      0.000449956840
   2     -0.014279978840
   3      0.664386590366
   4     -2.393306237731
   5     -0.664573067672
   6     -0.000000000001
   7     -0.000000000000
   8      0.037587856730
   9      0.000000000000
  10     -0.000000000000
  11     -0.165640879571
  12     -0.000000000000
  13      0.000000000000
  14      1.747998888464
  15      0.000000000000
  16     -0.000000000000
  17      0.506878485981
  18      0.000000000000