[Molden Format]
[Title]
generated by TRESC, imaginary part2 of MOs of job SCN
 
[Atoms] AU
 S   1  16  -17.2278192557   -6.3208121784    0.0000000000
 C   2   6  -20.3490796710   -6.3208121784    0.0000000000
 N   3   7  -22.5353603590   -6.3208121784    0.0000000000
[GTO]
  1 0
 s  5 1.0
    10081.3659290000        0.0067330718
     1468.8676987000        0.0423201277
      327.2465016600        0.1866835343
       90.5285201140        0.4849802687
       27.5058308280        0.4517376429
 s  3 1.0
       46.3853988360       -0.0950589434
        5.0228188449        0.5843701906
        2.0306206045        0.5413909427
 s  1 1.0
        0.3606627882        1.0000000000
 s  1 1.0
        0.1371410729        1.0000000000
 p  5 1.0
      604.8788900300        0.0002353489
      140.0897861900        0.0017386166
       44.4994657800        0.0077865988
       16.4748871580        0.0220140918
        6.5229645048        0.0378945448
 p  5 1.0
      270.9504306400        0.0092081513
       62.5377853170        0.0653131413
       19.3546142200        0.2445470601
        6.7163477485        0.4820783852
        2.4098646724        0.3917477785
 p  1 1.0
        0.6191509478        1.0000000000
 p  1 1.0
        0.1701457548        1.0000000000
 d  1 1.0
        0.5500000000        1.0000000000
 
  2 0
 s  5 1.0
     1231.7975026000        0.0058423196
      185.5974766200        0.0415113222
       42.0875016200        0.1832849990
       11.6300369400        0.4683526005
        3.5840894779        0.4430601820
 s  1 1.0
        0.4029351893        1.0000000000
 s  1 1.0
        0.1309419451        1.0000000000
 p  3 1.0
        9.4821246358        0.0381720490
        2.0121097169        0.2099973699
        0.5481253660        0.5104097902
 p  1 1.0
        0.1527756940        1.0000000000
 d  1 1.0
        0.8000000000        1.0000000000
 
  3 0
 s  5 1.0
     1706.0150550000        0.0058639453
      255.9938356800        0.0413450288
       58.1565771970        0.1820914202
       16.1430707430        0.4678591214
        4.9963209539        0.4434151324
 s  1 1.0
        0.5882550288        1.0000000000
 s  1 1.0
        0.1877013255        1.0000000000
 p  3 1.0
       13.5897862110        0.0400190920
        2.9274822154        0.2175789499
        0.7994670210        0.5117738303
 p  1 1.0
        0.2195247995        1.0000000000
 d  1 1.0
        1.0000000000        1.0000000000
 
[5D]
[7F]
[9G]
[MO]
 Ene=   0.60396142566887E+00
 Spin= Alpha
 Occup=    0.000000
   1      0.000000000000
   2     -0.000000000000
   3      0.000000000000
   4      0.000000000000
   5     -0.000000000000
   6     -0.205038832200
   7      0.554756943868
   8      0.000000000000
   9      0.089657953859
  10     -0.242528032268
  11     -0.000000000000
  12     -0.262463485524
  13      0.709941274411
  14      0.000000000000
  15      0.214011104531
  16     -0.578871720280
  17      0.000000000001
  18     -0.710326467572
  19      0.000000000000
  20      0.000000000001
  21      0.262593105304
  22      0.000000000000
  23     -0.000000000001
  24      0.000000000001
  25      0.000000000000
  26      0.035014948452
  27     -0.094708243728
  28     -0.000000000001
  29      0.045713691514
  30     -0.123672581099
  31     -0.000000000000
  32      0.103439578669
  33      0.000000000000
  34      0.000000000000
  35     -0.038240013780
  36     -0.000000000000
  37     -0.000000000000
  38     -0.000000000001
  39      0.000000000000
  40     -0.109385866678
  41      0.295906707579
  42      0.000000000000
  43      0.013786369262
  44     -0.037298929615
  45      0.000000000000
  46     -0.009909087208
  47      0.000000000000
  48     -0.000000000000
  49      0.003663236389
 Ene=   0.61151353347798E+00
 Spin= Alpha
 Occup=    0.000000
   1     -0.000000000000
   2     -0.000000000000
   3     -0.000000000000
   4      0.000000000000
   5     -0.000000000000
   6      0.018514876772
   7      0.006787927271
   8     -0.000000000000
   9     -0.002394282541
  10     -0.000870929079
  11      0.000000000000
  12      0.003377085784
  13      0.001213478123
  14     -0.000000000000
  15     -0.001195689186
  16     -0.000415632922
  17      0.000000000000
  18     -0.002817197514
  19      0.000000000000
  20     -0.000000000000
  21     -0.007735004225
  22     -0.000000000000
  23      0.000000000000
  24     -0.000000000000
  25     -0.000000000000
  26      0.000373401381
  27      0.000142259348
  28      0.000000000000
  29     -0.003785852017
  30     -0.001389427775
  31      0.000000000000
  32      0.000343299407
  33      0.000000000000
  34     -0.000000000000
  35      0.000944651398
  36      0.000000000000
  37      0.000000000000
  38      0.000000000000
  39     -0.000000000000
  40      0.004397285309
  41      0.001605447928
  42     -0.000000000000
  43     -0.000614906628
  44     -0.000223935637
  45     -0.000000000000
  46     -0.000030053828
  47      0.000000000000
  48      0.000000000000
  49     -0.000082878151
 Ene=   0.62060163185043E+00
 Spin= Alpha
 Occup=    0.000000
   1     -0.000000000000
   2      0.000000000000
   3     -0.000000000000
   4      0.000000000000
   5     -0.000000000000
   6      0.009168843230
   7     -0.024757371122
   8     -0.000000000000
   9     -0.001925394484
  10      0.005203975339
  11      0.000000000000
  12      0.004308548544
  13     -0.011651770210
  14     -0.000000000000
  15     -0.002989874277
  16      0.008088677581
  17     -0.000000000000
  18      0.015444066933
  19     -0.000000000000
  20     -0.000000000000
  21     -0.005715394497
  22     -0.000000000000
  23      0.000000000000
  24     -0.000000000000
  25     -0.000000000000
  26     -0.000388351213
  27      0.001050895468
  28     -0.000000000000
  29     -0.001714791895
  30      0.004631014158
  31     -0.000000000000
  32     -0.002142003709
  33     -0.000000000000
  34     -0.000000000000
  35      0.000792536257
  36      0.000000000000
  37     -0.000000000000
  38     -0.000000000000
  39     -0.000000000000
  40      0.002748128924
  41     -0.007422247835
  42     -0.000000000000
  43     -0.000353859203
  44      0.000953856777
  45     -0.000000000000
  46      0.000206686616
  47     -0.000000000000
  48      0.000000000000
  49     -0.000076479070
 Ene=   0.63753058900705E+00
 Spin= Alpha
 Occup=    0.000000
   1     -0.000000000000
   2      0.000000000000
   3     -0.000000000000
   4      0.000000000001
   5     -0.000000000000
   6     -0.000323195214
   7     -0.000348649005
   8      0.000000000000
   9      0.000133662756
  10      0.000146171453
  11     -0.000000000000
  12     -0.000397736248
  13     -0.000431750499
  14     -0.000000000000
  15      0.000396068554
  16      0.000404601859
  17     -0.000000000001
  18      0.000214827846
  19      0.000000000001
  20     -0.000000000000
  21      0.000089274870
  22     -0.000000000000
  23      0.000000000001
  24     -0.000000000000
  25      0.000000000000
  26      0.000092566097
  27      0.000092627250
  28     -0.000000000002
  29     -0.000127463477
  30     -0.000074110813
  31     -0.000000000000
  32     -0.000044538890
  33      0.000000000000
  34     -0.000000000000
  35     -0.000030018350
  36      0.000000000000
  37     -0.000000000000
  38     -0.000000000001
  39      0.000000000000
  40      0.000034722436
  41     -0.000042707246
  42     -0.000000000001
  43     -0.000012313765
  44      0.000005706912
  45      0.000000000000
  46      0.000004845579
  47      0.000000000000
  48     -0.000000000000
  49      0.000003449086
 Ene=   0.64245113706170E+00
 Spin= Alpha
 Occup=    0.000000
   1     -0.000000000000
   2      0.000000000000
   3     -0.000000000000
   4      0.000000000000
   5     -0.000000000000
   6     -0.000305914304
   7      0.000154770431
   8      0.000000000000
   9      0.000128951516
  10     -0.000177947036
  11     -0.000000000000
  12     -0.000381842325
  13      0.000598046237
  14     -0.000000000000
  15      0.000361569639
  16     -0.000567298562
  17      0.000000000000
  18     -0.000222515551
  19      0.000000000000
  20      0.000000000000
  21      0.000174032409
  22     -0.000000000000
  23      0.000000000000
  24     -0.000000000000
  25     -0.000000000000
  26      0.000083265837
  27     -0.000103201128
  28     -0.000000000000
  29     -0.000076336567
  30      0.000092306858
  31      0.000000000000
  32      0.000055234759
  33      0.000000000000
  34      0.000000000000
  35     -0.000037980189
  36      0.000000000000
  37     -0.000000000000
  38     -0.000000000000
  39      0.000000000000
  40     -0.000030035781
  41     -0.000036535993
  42     -0.000000000000
  43      0.000006127939
  44      0.000064310333
  45     -0.000000000000
  46     -0.000006123174
  47      0.000000000000
  48      0.000000000000
  49      0.000004108696
 Ene=   0.64453343817867E+00
 Spin= Alpha
 Occup=    0.000000
   1     -0.000000000000
   2      0.000000000000
   3      0.000000000017
   4     -0.000000000324
   5      0.000000000009
   6      0.000121463143
   7     -0.000011754049
   8     -0.000000000002
   9      0.000204002804
  10      0.000005371746
  11      0.000000000006
  12     -0.000770160782
  13     -0.000018495955
  14      0.000000000176
  15      0.000740164584
  16      0.000029466829
  17     -0.000000000009
  18     -0.000078344006
  19      0.000000000005
  20      0.000000000004
  21     -0.000173015152
  22      0.000000000036
  23     -0.000000000287
  24      0.000000000089
  25      0.000000000067
  26      0.000152812571
  27     -0.000001912831
  28      0.000000000447
  29     -0.000069144657
  30     -0.000029831419
  31      0.000000000001
  32      0.000006558466
  33      0.000000000000
  34     -0.000000000002
  35     -0.000040988388
  36     -0.000000000036
  37      0.000000000143
  38      0.000000000301
  39     -0.000000000088
  40      0.000810354256
  41      0.000076086801
  42      0.000000000311
  43     -0.000716848589
  44     -0.000037078071
  45      0.000000000003
  46     -0.000000466218
  47      0.000000000001
  48     -0.000000000007
  49      0.000025593477
 Ene=   0.65071297660093E+00
 Spin= Alpha
 Occup=    0.000000
   1      0.000000000000
   2     -0.000000000000
   3     -0.000000000000
   4      0.000000000000
   5      0.000000000000
   6      0.000054733342
   7      0.000255373526
   8      0.000000000000
   9     -0.000023267541
  10     -0.000182198747
  11     -0.000000000000
  12      0.000071463848
  13      0.000576247357
  14     -0.000000000000
  15     -0.000079573351
  16     -0.000479134539
  17      0.000000000000
  18     -0.000087821005
  19      0.000000000000
  20      0.000000000000
  21      0.000052553688
  22     -0.000000000000
  23      0.000000000000
  24     -0.000000000000
  25     -0.000000000000
  26     -0.000009204254
  27     -0.000091180749
  28     -0.000000000000
  29      0.000039891137
  30     -0.000115794986
  31      0.000000000000
  32      0.000058508836
  33      0.000000000000
  34      0.000000000000
  35     -0.000001108732
  36      0.000000000000
  37     -0.000000000000
  38     -0.000000000000
  39      0.000000000000
  40     -0.000070152425
  41     -0.000514651103
  42     -0.000000000000
  43      0.000034795564
  44      0.000575150178
  45     -0.000000000000
  46     -0.000023657766
  47     -0.000000000000
  48      0.000000000000
  49     -0.000000003897
 Ene=   0.70545140931171E+00
 Spin= Alpha
 Occup=    0.000000
   1     -0.000000000000
   2      0.000000000000
   3     -0.000000000000
   4      0.000000000006
   5      0.000000000001
   6      0.591420442468
   7      0.218672953626
   8     -0.000000000000
   9     -0.288982007047
  10     -0.106838734406
  11      0.000000000001
  12      0.892059175649
  13      0.329794769582
  14     -0.000000000004
  15     -0.907050938628
  16     -0.335335386832
  17      0.000000000000
  18      0.162216280191
  19     -0.000000000000
  20      0.000000000000
  21      0.438793602393
  22     -0.000000000000
  23      0.000000000001
  24     -0.000000000003
  25      0.000000000001
  26     -0.046248147111
  27     -0.017097182932
  28     -0.000000000007
  29      0.311645087528
  30      0.115212518522
  31      0.000000000000
  32      0.001673389758
  33     -0.000000000000
  34     -0.000000000000
  35      0.004524597504
  36     -0.000000000000
  37      0.000000000000
  38     -0.000000000004
  39     -0.000000000000
  40     -0.719455717737
  41     -0.265977793293
  42     -0.000000000000
  43      0.403453034652
  44      0.149154498210
  45      0.000000000000
  46      0.000773828362
  47     -0.000000000000
  48     -0.000000000000
  49      0.002093109204
 Ene=   0.71915150709553E+00
 Spin= Alpha
 Occup=    0.000000
   1     -0.000000000000
   2      0.000000000002
   3     -0.000000000033
   4      0.000000000339
   5      0.000000000015
   6     -0.024755247419
   7     -0.009121631942
   8     -0.000000000013
   9      0.006629889411
  10      0.004559288886
  11      0.000000000041
  12     -0.017324445758
  13     -0.014087494216
  14     -0.000000000221
  15      0.016679704595
  16      0.014130863504
  17      0.000000000004
  18     -0.006992122194
  19     -0.000000000002
  20     -0.000000000003
  21     -0.006494404084
  22     -0.000000000012
  23      0.000000000081
  24     -0.000000000203
  25      0.000000000075
  26      0.000248632096
  27      0.000413300595
  28     -0.000000000390
  29     -0.004432154592
  30     -0.004442226578
  31      0.000000000003
  32     -0.000082479625
  33     -0.000000000000
  34     -0.000000000004
  35     -0.000357615128
  36     -0.000000000001
  37      0.000000000003
  38     -0.000000000206
  39     -0.000000000026
  40      0.012558657125
  41      0.011802016665
  42      0.000000000001
  43     -0.007569092387
  44     -0.006820064059
  45      0.000000000001
  46     -0.000035678531
  47      0.000000000000
  48     -0.000000000003
  49     -0.000041599904
 Ene=   0.72300501379796E+00
 Spin= Alpha
 Occup=    0.000000
   1     -0.000000000000
   2      0.000000000000
   3     -0.000000000000
   4      0.000000000001
   5      0.000000000000
   6      0.009944039368
   7     -0.001993504469
   8     -0.000000000000
   9     -0.004991614102
  10      0.006823802186
  11      0.000000000000
  12      0.015416845101
  13     -0.024225117256
  14     -0.000000000001
  15     -0.015388127354
  16      0.024806127057
  17      0.000000000000
  18     -0.013744648351
  19     -0.000000000000
  20     -0.000000000000
  21      0.007566110324
  22     -0.000000000000
  23      0.000000000000
  24     -0.000000000001
  25      0.000000000000
  26     -0.000367465734
  27      0.000811669151
  28     -0.000000000001
  29      0.004685116314
  30     -0.008308666787
  31      0.000000000000
  32      0.000070308264
  33     -0.000000000000
  34     -0.000000000000
  35      0.000106194012
  36     -0.000000000000
  37      0.000000000000
  38     -0.000000000001
  39     -0.000000000000
  40     -0.012967075973
  41      0.022094403677
  42      0.000000000000
  43      0.007565468976
  44     -0.012569850893
  45      0.000000000000
  46     -0.000064382146
  47      0.000000000000
  48     -0.000000000000
  49      0.000038131117
 Ene=   0.73196130632464E+00
 Spin= Alpha
 Occup=    0.000000
   1     -0.000000000000
   2      0.000000000000
   3     -0.000000000000
   4      0.000000000004
   5      0.000000000001
   6     -0.205797164668
   7      0.556826420891
   8     -0.000000000000
   9      0.106053363093
  10     -0.286891652061
  11      0.000000000000
  12     -0.328091113138
  13      0.887510458560
  14     -0.000000000002
  15      0.323712266348
  16     -0.875660719423
  17     -0.000000000000
  18      0.423934904306
  19     -0.000000000000
  20     -0.000000000000
  21     -0.156723410833
  22     -0.000000000000
  23      0.000000000001
  24     -0.000000000002
  25      0.000000000001
  26      0.003739457310
  27     -0.010113649325
  28     -0.000000000004
  29     -0.090773661064
  30      0.245541328325
  31      0.000000000000
  32      0.008401250522
  33     -0.000000000000
  34     -0.000000000000
  35     -0.003105011594
  36      0.000000000000
  37     -0.000000000000
  38     -0.000000000002
  39     -0.000000000000
  40      0.279039863656
  41     -0.754811650063
  42      0.000000000000
  43     -0.166665011885
  44      0.450837859802
  45      0.000000000000
  46      0.002011904746
  47      0.000000000000
  48     -0.000000000000
  49     -0.000743796271
 Ene=   0.73862809136169E+00
 Spin= Alpha
 Occup=    0.000000
   1      0.000000000000
   2     -0.000000000000
   3      0.000000000000
   4     -0.000000000000
   5      0.000000000000
   6      0.030347586590
   7      0.011148582349
   8      0.000000000000
   9     -0.006548204991
  10     -0.002394948688
  11     -0.000000000000
  12      0.015493438534
  13      0.005653335707
  14      0.000000000000
  15     -0.014398892772
  16     -0.005251139974
  17     -0.000000000000
  18      0.001865992871
  19     -0.000000000000
  20      0.000000000000
  21      0.005135825910
  22      0.000000000000
  23     -0.000000000000
  24      0.000000000000
  25     -0.000000000000
  26     -0.000146373170
  27     -0.000054279504
  28      0.000000000000
  29      0.003067994038
  30      0.001116620200
  31     -0.000000000000
  32      0.000173852927
  33     -0.000000000000
  34      0.000000000000
  35      0.000473530278
  36     -0.000000000000
  37      0.000000000000
  38      0.000000000000
  39      0.000000000000
  40     -0.011544381316
  41     -0.004205662283
  42     -0.000000000000
  43      0.007472477759
  44      0.002723917466
  45     -0.000000000000
  46     -0.000004469548
  47     -0.000000000000
  48      0.000000000000
  49     -0.000011744430
 Ene=   0.74732496578282E+00
 Spin= Alpha
 Occup=    0.000000
   1     -0.000000000000
   2      0.000000000000
   3     -0.000000000000
   4      0.000000000000
   5      0.000000000000
   6     -0.015228736521
   7      0.041153194090
   8     -0.000000000000
   9      0.004486090881
  10     -0.012127441705
  11      0.000000000000
  12     -0.012069803024
  13      0.032632778143
  14     -0.000000000000
  15      0.011381201804
  16     -0.030771543091
  17     -0.000000000000
  18      0.012676561972
  19     -0.000000000000
  20     -0.000000000000
  21     -0.004688184284
  22     -0.000000000000
  23      0.000000000000
  24     -0.000000000000
  25      0.000000000000
  26     -0.000062593617
  27      0.000168744544
  28     -0.000000000000
  29     -0.002428005130
  30      0.006565969346
  31      0.000000000000
  32      0.000777897275
  33      0.000000000000
  34     -0.000000000000
  35     -0.000287821954
  36      0.000000000000
  37     -0.000000000000
  38     -0.000000000000
  39     -0.000000000000
  40      0.009845285582
  41     -0.026619056522
  42      0.000000000000
  43     -0.006307335248
  44      0.017052432860
  45      0.000000000000
  46      0.000010550017
  47      0.000000000000
  48     -0.000000000000
  49     -0.000003893149
 Ene=   0.86074675593836E+00
 Spin= Alpha
 Occup=    0.000000
   1     -0.000000000000
   2      0.000000000000
   3     -0.000000000000
   4      0.000000000001
   5     -0.000000000000
   6     -0.257694341290
   7     -0.095280033496
   8     -0.000000000000
   9      0.123779451625
  10      0.045763627159
  11      0.000000000000
  12     -0.408343725391
  13     -0.150970649496
  14     -0.000000000000
  15      0.670389949528
  16      0.247851662901
  17      0.000000000000
  18     -0.135232288510
  19      0.000000000000
  20     -0.000000000000
  21     -0.365778095742
  22     -0.000000000000
  23      0.000000000000
  24     -0.000000000001
  25      0.000000000000
  26      0.354823863265
  27      0.131182327026
  28     -0.000000000000
  29     -1.099991453466
  30     -0.406679224585
  31      0.000000000000
  32      0.052495986314
  33     -0.000000000000
  34     -0.000000000000
  35      0.141992048999
  36      0.000000000000
  37     -0.000000000000
  38      0.000000000001
  39      0.000000000000
  40     -1.070873986552
  41     -0.395913724674
  42      0.000000000000
  43      1.324871495073
  44      0.489819503044
  45      0.000000000000
  46     -0.016615773215
  47      0.000000000000
  48     -0.000000000000
  49     -0.044942508709
 Ene=   0.87665970709553E+00
 Spin= Alpha
 Occup=    0.000000
   1      0.000000000000
   2     -0.000000000000
   3      0.000000000000
   4     -0.000000000000
   5     -0.000000000000
   6      0.098468606247
   7     -0.266383599032
   8      0.000000000000
   9     -0.049805602318
  10      0.134721739049
  11     -0.000000000000
  12      0.163937615921
  13     -0.443433734312
  14      0.000000000000
  15     -0.257641253312
  16      0.696886990991
  17      0.000000000000
  18     -0.382177258790
  19      0.000000000000
  20      0.000000000000
  21      0.141292964295
  22      0.000000000000
  23     -0.000000000000
  24      0.000000000000
  25     -0.000000000000
  26     -0.126266386529
  27      0.341532699972
  28      0.000000000000
  29      0.404274526932
  30     -1.093505609400
  31     -0.000000000000
  32      0.146394926911
  33      0.000000000000
  34      0.000000000000
  35     -0.054123065824
  36     -0.000000000000
  37      0.000000000000
  38     -0.000000000000
  39     -0.000000000000
  40      0.388220733697
  41     -1.050081028350
  42     -0.000000000000
  43     -0.482438980285
  44      1.304928075725
  45     -0.000000000000
  46     -0.045769536836
  47      0.000000000000
  48      0.000000000000
  49      0.016921192869
 Ene=   0.88133250477733E+00
 Spin= Alpha
 Occup=    0.000000
   1      0.000000000000
   2      0.000000000000
   3     -0.000000000000
   4      0.000000000000
   5     -0.000000000000
   6     -0.013317979098
   7     -0.004900774256
   8     -0.000000000000
   9      0.002486927227
  10      0.000912088997
  11      0.000000000000
  12     -0.005717194252
  13     -0.002092285842
  14     -0.000000000000
  15      0.008004824262
  16      0.002927859788
  17      0.000000000000
  18     -0.001372253091
  19      0.000000000000
  20     -0.000000000000
  21     -0.003756610612
  22     -0.000000000000
  23      0.000000000000
  24     -0.000000000000
  25      0.000000000000
  26      0.003731136449
  27      0.001364892715
  28      0.000000000000
  29     -0.011454727563
  30     -0.004187878974
  31      0.000000000000
  32      0.000528860907
  33      0.000000000000
  34     -0.000000000000
  35      0.001447365105
  36      0.000000000000
  37     -0.000000000000
  38      0.000000000000
  39     -0.000000000000
  40     -0.010942397650
  41     -0.004001051066
  42      0.000000000000
  43      0.013463597812
  44      0.004922165728
  45      0.000000000000
  46     -0.000175506646
  47      0.000000000000
  48      0.000000000000
  49     -0.000480139975
 Ene=   0.88703491388196E+00
 Spin= Alpha
 Occup=    0.000000
   1      0.000000000000
   2     -0.000000000000
   3      0.000000000000
   4     -0.000000000000
   5     -0.000000000000
   6      0.006113250557
   7     -0.016479824510
   8      0.000000000000
   9     -0.001541547491
  10      0.004160180853
  11     -0.000000000000
  12      0.004146433478
  13     -0.011195830903
  14      0.000000000000
  15     -0.006001539015
  16      0.016208853121
  17      0.000000000000
  18     -0.008206523452
  19      0.000000000000
  20      0.000000000000
  21      0.003037949385
  22      0.000000000000
  23     -0.000000000000
  24      0.000000000000
  25     -0.000000000000
  26     -0.002751053318
  27      0.007431790883
  28     -0.000000000000
  29      0.008764524836
  30     -0.023675948501
  31     -0.000000000000
  32      0.003130240070
  33     -0.000000000000
  34      0.000000000000
  35     -0.001158667428
  36     -0.000000000000
  37      0.000000000000
  38     -0.000000000000
  39     -0.000000000000
  40      0.008327573175
  41     -0.022497103602
  42     -0.000000000000
  43     -0.010323633372
  44      0.027889002729
  45     -0.000000000000
  46     -0.001003727366
  47     -0.000000000000
  48      0.000000000000
  49      0.000371602856
 Ene=   0.91519257190062E+00
 Spin= Alpha
 Occup=    0.000000
   1      0.000000000000
   2     -0.000000000000
   3      0.000000000000
   4     -0.000000000000
   5     -0.000000000000
   6      0.023919045807
   7     -0.000240446544
   8      0.000000000000
   9     -0.003284429347
  10      0.000171645373
  11     -0.000000000000
  12      0.005583168052
  13     -0.000566556480
  14      0.000000000000
  15     -0.006161435096
  16      0.000754274019
  17      0.000000000000
  18     -0.000380217971
  19     -0.000000000000
  20     -0.000000000000
  21      0.002293857083
  22     -0.000000000000
  23      0.000000000000
  24      0.000000000000
  25     -0.000000000000
  26     -0.001887584953
  27      0.000278368996
  28      0.000000000000
  29      0.006447200250
  30     -0.000967693372
  31      0.000000000000
  32      0.000133029851
  33     -0.000000000000
  34     -0.000000000000
  35     -0.000757300681
  36      0.000000000000
  37     -0.000000000000
  38      0.000000000000
  39     -0.000000000000
  40      0.005423546917
  41     -0.000845811912
  42      0.000000000000
  43     -0.006950801923
  44      0.001087257004
  45     -0.000000000000
  46     -0.000042334532
  47     -0.000000000000
  48      0.000000000000
  49      0.000322023894
 Ene=   0.92398633905134E+00
 Spin= Alpha
 Occup=    0.000000
   1      0.000000000000
   2     -0.000000000000
   3      0.000000000000
   4     -0.000000000000
   5      0.000000000000
   6     -0.000161182920
   7      0.023829103291
   8     -0.000000000000
   9      0.000124955623
  10     -0.003349129674
  11     -0.000000000000
  12     -0.000412838726
  13      0.005872287562
  14      0.000000000000
  15      0.000532824714
  16     -0.006529099315
  17      0.000000000000
  18      0.002477515040
  19     -0.000000000000
  20     -0.000000000000
  21     -0.000259757240
  22     -0.000000000000
  23      0.000000000000
  24      0.000000000000
  25     -0.000000000000
  26      0.000184528795
  27     -0.001951164802
  28     -0.000000000000
  29     -0.000651417493
  30      0.006766326884
  31      0.000000000000
  32     -0.000811758200
  33      0.000000000000
  34      0.000000000000
  35      0.000089079460
  36      0.000000000000
  37     -0.000000000000
  38     -0.000000000000
  39     -0.000000000000
  40     -0.000556579954
  41      0.005616867424
  42     -0.000000000000
  43      0.000721078764
  44     -0.007254574050
  45      0.000000000000
  46      0.000336291882
  47      0.000000000000
  48      0.000000000000
  49     -0.000028727552
 Ene=   0.10437733944950E+01
 Spin= Alpha
 Occup=    0.000000
   1      0.000000000000
   2     -0.000000000000
   3      0.000000000000
   4      0.000000000006
   5     -0.000000000000
   6     -0.002844435329
   7     -0.000001905784
   8      0.000000000000
   9      0.000300072175
  10     -0.000002808763
  11     -0.000000000000
  12     -0.000332687298
  13      0.000009859712
  14     -0.000000000003
  15      0.000272044991
  16     -0.000009829016
  17     -0.000000000000
  18      0.000001261524
  19      0.000000000000
  20      0.000000000001
  21     -0.000004837137
  22     -0.000000000000
  23      0.000000000003
  24      0.000000000004
  25     -0.000000000001
  26     -0.000001177847
  27     -0.000002217421
  28     -0.000000000012
  29     -0.000164273851
  30      0.000007868525
  31     -0.000000000000
  32     -0.000000515062
  33     -0.000000000000
  34      0.000000000000
  35      0.000024056058
  36     -0.000000000000
  37      0.000000000002
  38     -0.000000000015
  39     -0.000000000000
  40     -0.000299447240
  41      0.000008364368
  42     -0.000000000005
  43      0.000272075581
  44     -0.000009067678
  45     -0.000000000000
  46      0.000000122623
  47     -0.000000000000
  48      0.000000000000
  49     -0.000043150206
 Ene=   0.10514570257045E+01
 Spin= Alpha
 Occup=    0.000000
   1     -0.000000000000
   2     -0.000000000000
   3      0.000000000000
   4      0.000000000000
   5     -0.000000000000
   6      0.000001877338
   7      0.002664828462
   8      0.000000000000
   9      0.000002616138
  10     -0.000283569252
  11     -0.000000000000
  12     -0.000009242879
  13      0.000321743914
  14     -0.000000000000
  15      0.000009420263
  16     -0.000267491576
  17     -0.000000000000
  18      0.000015475212
  19     -0.000000000000
  20      0.000000000000
  21     -0.000002427930
  22     -0.000000000000
  23      0.000000000000
  24      0.000000000000
  25     -0.000000000000
  26      0.000002107382
  27     -0.000001138162
  28     -0.000000000000
  29     -0.000008052436
  30      0.000165138692
  31     -0.000000000000
  32     -0.000025998251
  33     -0.000000000000
  34      0.000000000000
  35      0.000000903972
  36     -0.000000000000
  37      0.000000000000
  38     -0.000000000000
  39     -0.000000000000
  40     -0.000007992315
  41      0.000288583595
  42     -0.000000000000
  43      0.000009065684
  44     -0.000268676727
  45     -0.000000000000
  46      0.000039394821
  47     -0.000000000000
  48      0.000000000000
  49     -0.000000242289
 Ene=   0.12419049975974E+01
 Spin= Alpha
 Occup=    0.000000
   1     -0.000000000000
   2      0.000000000000
   3     -0.000000000000
   4      0.000000000000
   5      0.000000000000
   6      0.001944392352
   7      0.000003181071
   8     -0.000000000000
   9     -0.000178037040
  10      0.000000329246
  11      0.000000000000
  12      0.000136152276
  13     -0.000001658797
  14     -0.000000000000
  15     -0.000077367134
  16      0.000001498194
  17     -0.000000000000
  18      0.000002121805