[Molden Format]
[Title]
generated by TRESC, imaginary part1 of MOs of job SCN
 
[Atoms] AU
 S   1  16  -17.2278192557   -6.3208121784    0.0000000000
 C   2   6  -20.3490796710   -6.3208121784    0.0000000000
 N   3   7  -22.5353603590   -6.3208121784    0.0000000000
[GTO]
  1 0
 s  5 1.0
    10081.3659290000        0.0067330718
     1468.8676987000        0.0423201277
      327.2465016600        0.1866835343
       90.5285201140        0.4849802687
       27.5058308280        0.4517376429
 s  3 1.0
       46.3853988360       -0.0950589434
        5.0228188449        0.5843701906
        2.0306206045        0.5413909427
 s  1 1.0
        0.3606627882        1.0000000000
 s  1 1.0
        0.1371410729        1.0000000000
 p  5 1.0
      604.8788900300        0.0002353489
      140.0897861900        0.0017386166
       44.4994657800        0.0077865988
       16.4748871580        0.0220140918
        6.5229645048        0.0378945448
 p  5 1.0
      270.9504306400        0.0092081513
       62.5377853170        0.0653131413
       19.3546142200        0.2445470601
        6.7163477485        0.4820783852
        2.4098646724        0.3917477785
 p  1 1.0
        0.6191509478        1.0000000000
 p  1 1.0
        0.1701457548        1.0000000000
 d  1 1.0
        0.5500000000        1.0000000000
 
  2 0
 s  5 1.0
     1231.7975026000        0.0058423196
      185.5974766200        0.0415113222
       42.0875016200        0.1832849990
       11.6300369400        0.4683526005
        3.5840894779        0.4430601820
 s  1 1.0
        0.4029351893        1.0000000000
 s  1 1.0
        0.1309419451        1.0000000000
 p  3 1.0
        9.4821246358        0.0381720490
        2.0121097169        0.2099973699
        0.5481253660        0.5104097902
 p  1 1.0
        0.1527756940        1.0000000000
 d  1 1.0
        0.8000000000        1.0000000000
 
  3 0
 s  5 1.0
     1706.0150550000        0.0058639453
      255.9938356800        0.0413450288
       58.1565771970        0.1820914202
       16.1430707430        0.4678591214
        4.9963209539        0.4434151324
 s  1 1.0
        0.5882550288        1.0000000000
 s  1 1.0
        0.1877013255        1.0000000000
 p  3 1.0
       13.5897862110        0.0400190920
        2.9274822154        0.2175789499
        0.7994670210        0.5117738303
 p  1 1.0
        0.2195247995        1.0000000000
 d  1 1.0
        1.0000000000        1.0000000000
 
[5D]
[7F]
[9G]
[MO]
 Ene=  -0.89134385274675E+02
 Spin= Alpha
 Occup=    1.000000
   1      0.000000000512
   2      0.000000000012
   3     -0.000000000006
   4      0.000000000002
   5      0.000000000005
   6     -0.000018451711
   7      0.000000016697
   8     -0.000000000000
   9      0.000000625632
  10     -0.000000000603
  11      0.000000000000
  12     -0.000000100196
  13      0.000000000233
  14      0.000000000000
  15      0.000000052336
  16     -0.000000000068
  17      0.000000000000
  18     -0.000000000060
  19     -0.000000000000
  20     -0.000000000000
  21     -0.000000004899
  22     -0.000000000000
  23     -0.000000000000
  24     -0.000000000002
  25      0.000000000000
  26      0.000000002318
  27     -0.000000000014
  28      0.000000000003
  29     -0.000000013172
  30      0.000000000007
  31     -0.000000000000
  32      0.000000000010
  33      0.000000000000
  34      0.000000000000
  35      0.000000002717
  36      0.000000000000
  37     -0.000000000001
  38      0.000000000004
  39     -0.000000000000
  40      0.000000000069
  41      0.000000000029
  42      0.000000000001
  43      0.000000005204
  44      0.000000000015
  45      0.000000000000
  46      0.000000000002
  47      0.000000000000
  48     -0.000000000000
  49      0.000000001710
 Ene=  -0.89129318235879E+02
 Spin= Alpha
 Occup=    0.000000
   1     -0.000000000000
   2     -0.000000000000
   3      0.000000000000
   4      0.000000000000
   5      0.000000000000
   6      0.000000000997
   7      0.000012558990
   8     -0.000000000000
   9     -0.000000000048
  10     -0.000000542847
  11      0.000000000000
  12      0.000000000009
  13      0.000000093476
  14     -0.000000000000
  15     -0.000000000002
  16     -0.000000036267
  17     -0.000000000000
  18      0.000000000712
  19     -0.000000000000
  20     -0.000000000000
  21     -0.000000000001
  22     -0.000000000000
  23      0.000000000000
  24     -0.000000000000
  25      0.000000000000
  26      0.000000000000
  27     -0.000000000691
  28      0.000000000000
  29      0.000000000000
  30      0.000000009258
  31     -0.000000000000
  32     -0.000000002835
  33      0.000000000000
  34      0.000000000000
  35     -0.000000000000
  36      0.000000000000
  37     -0.000000000000
  38      0.000000000000
  39     -0.000000000000
  40     -0.000000000000
  41     -0.000000001626
  42      0.000000000000
  43     -0.000000000000
  44     -0.000000003938
  45      0.000000000000
  46     -0.000000001619
  47      0.000000000000
  48     -0.000000000000
  49     -0.000000000000
 Ene=  -0.14449200546499E+02
 Spin= Alpha
 Occup=    1.000000
   1     -0.000000000000
   2      0.000000000000
   3     -0.000000000001
   4     -0.000000000003
   5      0.000000000003
   6     -0.000003204802
   7     -0.000000000140
   8     -0.000000000000
   9      0.000000045752
  10     -0.000000000251
  11      0.000000000000
  12     -0.000000034444
  13      0.000000000466
  14      0.000000000002
  15      0.000000107523
  16      0.000000000295
  17      0.000000000000
  18     -0.000000000167
  19     -0.000000000000
  20     -0.000000000000
  21     -0.000000050973
  22     -0.000000000000
  23     -0.000000000000
  24     -0.000000000006
  25     -0.000000000001
  26      0.000000130950
  27     -0.000000001684
  28      0.000000000008
  29     -0.000000260283
  30     -0.000000000066
  31     -0.000000000000
  32      0.000000000631
  33      0.000000000000
  34      0.000000000001
  35     -0.000000150661
  36     -0.000000000260
  37     -0.000000000012
  38      0.000000000014
  39     -0.000000000002
  40     -0.000002036892
  41      0.000000006975
  42      0.000000000004
  43      0.000000645334
  44     -0.000000001411
  45      0.000000000000
  46     -0.000000000516
  47     -0.000000000000
  48     -0.000000000000
  49     -0.000000146300
 Ene=  -0.14441700118360E+02
 Spin= Alpha
 Occup=    0.000000
   1      0.000000000000
   2      0.000000000000
   3      0.000000000000
   4     -0.000000000000
   5     -0.000000000000
   6      0.000000000584
   7      0.000002993503
   8      0.000000000000
   9      0.000000000003
  10     -0.000000097060
  11     -0.000000000000
  12      0.000000000016
  13      0.000000035393
  14      0.000000000000
  15     -0.000000000041
  16     -0.000000109648
  17     -0.000000000000
  18      0.000000054531
  19      0.000000000000
  20      0.000000000000
  21      0.000000000032
  22      0.000000000000
  23     -0.000000000000
  24      0.000000000000
  25     -0.000000000000
  26     -0.000000000030
  27     -0.000000161892
  28     -0.000000000000
  29      0.000000000106
  30      0.000000267685
  31      0.000000000000
  32      0.000000155328
  33      0.000000000000
  34     -0.000000000000
  35      0.000000000043
  36      0.000000000000
  37      0.000000000000
  38     -0.000000000000
  39      0.000000000000
  40      0.000000001269
  41      0.000001994032
  42     -0.000000000000
  43     -0.000000000229
  44     -0.000000627484
  45     -0.000000000000
  46      0.000000145496
  47     -0.000000000000
  48     -0.000000000000
  49     -0.000000000099
 Ene=  -0.10335419712008E+02
 Spin= Alpha
 Occup=    0.000000
   1     -0.000000000000
   2     -0.000000000000
   3      0.000000000000
   4      0.000000000000
   5     -0.000000000000
   6     -0.000000001653
   7     -0.000009849709
   8      0.000000000000
   9     -0.000000000305
  10      0.000000166570
  11     -0.000000000000
  12     -0.000000000067
  13     -0.000000075708
  14     -0.000000000000
  15     -0.000000000010
  16      0.000000026592
  17     -0.000000000000
  18      0.000000038004
  19      0.000000000000
  20      0.000000000000
  21      0.000000000041
  22     -0.000000000000
  23     -0.000000000000
  24      0.000000000000
  25      0.000000000000
  26     -0.000000000046
  27      0.000000251697
  28     -0.000000000000
  29      0.000000000002
  30     -0.000000099200
  31      0.000000000000
  32      0.000000268486
  33      0.000000000000
  34      0.000000000000
  35      0.000000000097
  36     -0.000000000000
  37      0.000000000000
  38     -0.000000000000
  39      0.000000000000
  40      0.000000000012
  41      0.000000025621
  42     -0.000000000000
  43     -0.000000000002
  44      0.000000048461
  45     -0.000000000000
  46      0.000000011376
  47     -0.000000000000
  48     -0.000000000000
  49     -0.000000000026
 Ene=  -0.10332642044930E+02
 Spin= Alpha
 Occup=    1.000000
   1     -0.000000000000
   2      0.000000000000
   3     -0.000000000001
   4      0.000000000010
   5      0.000000000016
   6     -0.000011231269
   7      0.000000000616
   8     -0.000000000001
   9      0.000000068075
  10     -0.000000001656
  11      0.000000000001
  12     -0.000000090704
  13      0.000000002419
  14     -0.000000000005
  15     -0.000000006631
  16      0.000000000931
  17      0.000000000000
  18     -0.000000001675
  19      0.000000000000
  20     -0.000000000001
  21      0.000000067451
  22      0.000000000452
  23      0.000000000022
  24     -0.000000000001
  25     -0.000000000001
  26      0.000000270032
  27     -0.000000006188
  28     -0.000000000018
  29     -0.000000089292
  30      0.000000000599
  31     -0.000000000001
  32     -0.000000000045
  33     -0.000000000000
  34      0.000000000002
  35      0.000000274251
  36     -0.000000000000
  37      0.000000000000
  38     -0.000000000020
  39     -0.000000000001
  40     -0.000000156439
  41      0.000000006785
  42     -0.000000000008
  43      0.000000049750
  44      0.000000000981
  45      0.000000000000
  46      0.000000001755
  47      0.000000000000
  48     -0.000000000000
  49     -0.000000028448
 Ene=  -0.81254934129679E+01
 Spin= Alpha
 Occup=    1.000000
   1     -0.000000000025
   2      0.000000000079
   3      0.000000000004
   4     -0.000000000001
   5      0.000000000000
   6      0.000367773203
   7     -0.000000340137
   8     -0.000000000001
   9      0.000010698173
  10      0.000000058922
  11     -0.000000000000
  12      0.000002384884
  13      0.000000017612
  14     -0.000000000000
  15     -0.000000794698
  16     -0.000000000434
  17     -0.000000000000
  18     -0.000000005526
  19      0.000000000000
  20      0.000000000000
  21     -0.000000297619
  22      0.000000000000
  23      0.000000000000
  24      0.000000000001
  25     -0.000000000000
  26     -0.000000000425
  27     -0.000000005555
  28     -0.000000000001
  29      0.000000256174
  30     -0.000000003886
  31      0.000000000000
  32     -0.000000004545
  33     -0.000000000000
  34     -0.000000000000
  35     -0.000000054211
  36     -0.000000000000
  37      0.000000000000
  38     -0.000000000002
  39      0.000000000000
  40     -0.000000061960
  41      0.000000001422
  42     -0.000000000000
  43     -0.000000134296
  44      0.000000002469
  45     -0.000000000000
  46     -0.000000000396
  47      0.000000000000
  48      0.000000000000
  49     -0.000000039510
 Ene=  -0.81208716584438E+01
 Spin= Alpha
 Occup=    0.000000
   1      0.000000000000
   2     -0.000000000000
   3     -0.000000000000
   4      0.000000000000
   5      0.000000000000
   6      0.000000079042
   7      0.000343714564
   8      0.000000000000
   9      0.000000067593
  10      0.000008968692
  11      0.000000000000
  12      0.000000006443
  13      0.000001982531
  14     -0.000000000000
  15     -0.000000001459
  16     -0.000000771140
  17      0.000000000000
  18      0.000000125748
  19     -0.000000000000
  20     -0.000000000000
  21      0.000000000100
  22      0.000000000000
  23     -0.000000000000
  24     -0.000000000000
  25      0.000000000000
  26     -0.000000000016
  27     -0.000000015487
  28      0.000000000000
  29      0.000000000347
  30      0.000000218179
  31     -0.000000000000
  32     -0.000000038461
  33     -0.000000000000
  34      0.000000000000
  35     -0.000000000150
  36      0.000000000000
  37     -0.000000000000
  38      0.000000000000
  39     -0.000000000000
  40     -0.000000000088
  41     -0.000000010332
  42      0.000000000000
  43     -0.000000000181
  44     -0.000000097344
  45      0.000000000000
  46     -0.000000025059
  47     -0.000000000000
  48     -0.000000000000
  49     -0.000000000063
 Ene=  -0.60659191798223E+01
 Spin= Alpha
 Occup=    0.835564
   1     -0.000000000000
   2      0.000000000000
   3     -0.000000000000
   4     -0.000000000000
   5      0.000000000002
   6     -0.138832988616
   7     -0.045560445025
   8      0.000000000008
   9     -0.685145502746
  10     -0.236309110436
  11      0.000000000000
  12     -0.036227710155
  13     -0.012504537016
  14     -0.000000000000
  15      0.006319325177
  16      0.002180389409
  17      0.000000000000
  18      0.000089174375
  19      0.000000000000
  20     -0.000000000000
  21      0.000258530702
  22     -0.000000000000
  23     -0.000000000000
  24     -0.000000000000
  25      0.000000000000
  26      0.000270066499
  27      0.000093557075
  28      0.000000000000
  29     -0.001442291804
  30     -0.000497187992
  31     -0.000000000000
  32      0.000151472706
  33      0.000000000000
  34      0.000000000000
  35      0.000437701148
  36      0.000000000000
  37     -0.000000000000
  38      0.000000000000
  39     -0.000000000000
  40     -0.000001956931
  41     -0.000000729675
  42      0.000000000000
  43      0.000647531447
  44      0.000223149829
  45      0.000000000000
  46      0.000067819003
  47     -0.000000000000
  48     -0.000000000000
  49      0.000196342944
 Ene=  -0.60592581916424E+01
 Spin= Alpha
 Occup=    0.322129
   1      0.000000000000
   2     -0.000000000000
   3      0.000000000000
   4     -0.000000000000
   5     -0.000000000001
   6     -0.038343716275
   7      0.126748226365
   8     -0.000000000002
   9     -0.121364943545
  10      0.482199010893
  11     -0.000000000000
  12     -0.006286223712
  13      0.025117267313
  14      0.000000000000
  15      0.001106661883
  16     -0.004404981267
  17     -0.000000000000
  18     -0.000180303260
  19     -0.000000000000
  20      0.000000000000
  21      0.000045176489
  22      0.000000000000
  23     -0.000000000000
  24      0.000000000000
  25     -0.000000000000
  26      0.000045207173
  27     -0.000183264994
  28     -0.000000000000
  29     -0.000254565949
  30      0.001009337302
  31      0.000000000000
  32     -0.000294527002
  33     -0.000000000000
  34     -0.000000000000
  35      0.000072614446
  36      0.000000000000
  37      0.000000000000
  38     -0.000000000000
  39      0.000000000000
  40     -0.000001024060
  41      0.000003599704
  42     -0.000000000000
  43      0.000114273848
  44     -0.000452815331
  45     -0.000000000000
  46     -0.000134198937
  47     -0.000000000000
  48      0.000000000000
  49      0.000033426792
 Ene=  -0.60439163646861E+01
 Spin= Alpha
 Occup=    0.918980
   1     -0.000000000000
   2      0.000000000000
   3     -0.000000000000
   4     -0.000000000000
   5      0.000000000002
   6     -0.046497908890
   7     -0.007445377310
   8      0.000000000015
   9     -0.596558501533
  10     -0.162485203424
  11      0.000000000001
  12     -0.031326775544
  13     -0.008575551268
  14     -0.000000000000
  15      0.005380088170
  16      0.001466606640
  17      0.000000000000
  18      0.000062955161
  19      0.000000000000
  20     -0.000000000000
  21      0.000229572084
  22     -0.000000000000
  23      0.000000000000
  24     -0.000000000000
  25      0.000000000000
  26      0.000229843768
  27      0.000063073073
  28      0.000000000000
  29     -0.001221249996
  30     -0.000332478573
  31     -0.000000000000
  32      0.000103475386
  33      0.000000000000
  34      0.000000000000
  35      0.000374732454
  36      0.000000000000
  37     -0.000000000000
  38      0.000000000000
  39     -0.000000000000
  40     -0.000000532270
  41      0.000000315794
  42      0.000000000000
  43      0.000547722236
  44      0.000149216043
  45      0.000000000000
  46      0.000045932852
  47     -0.000000000000
  48     -0.000000000000
  49      0.000167197338
 Ene=  -0.60357934081357E+01
 Spin= Alpha
 Occup=    0.237555
   1     -0.000000000000
   2      0.000000000000
   3     -0.000000000000
   4     -0.000000000000
   5      0.000000000001
   6     -0.018435424383
   7      0.055521616431
   8      0.000000000019
   9     -0.110656387887
  10      0.415350124717
  11      0.000000000001
  12     -0.005692386281
  13      0.021489782743
  14     -0.000000000000
  15      0.000985323440
  16     -0.003701391553
  17      0.000000000000
  18     -0.000159311364
  19     -0.000000000000
  20     -0.000000000000
  21      0.000042124507
  22     -0.000000000000
  23      0.000000000000
  24     -0.000000000000
  25      0.000000000000
  26      0.000040468152
  27     -0.000153029180
  28      0.000000000000
  29     -0.000224982848
  30      0.000844221546
  31     -0.000000000000
  32     -0.000248846600
  33     -0.000000000000
  34      0.000000000000
  35      0.000065269952
  36      0.000000000000
  37     -0.000000000000
  38      0.000000000000
  39     -0.000000000000
  40     -0.000000775555
  41      0.000001512452
  42      0.000000000000
  43      0.000100818550
  44     -0.000378650568
  45      0.000000000000
  46     -0.000112902289
  47     -0.000000000000
  48     -0.000000000000
  49      0.000029784132
 Ene=  -0.60317066994864E+01
 Spin= Alpha
 Occup=    0.148153
   1      0.000000000000
   2     -0.000000000000
   3      0.000000000000
   4      0.000000000000
   5     -0.000000000001
   6     -0.000013548748
   7      0.009388415080
   8     -0.000000000024
   9      0.158463417297
  10      0.143572338438
  11     -0.000000000001
  12      0.008324664126
  13      0.007466152036
  14      0.000000000000
  15     -0.001410904451
  16     -0.001275899320
  17     -0.000000000000
  18     -0.000055440851
  19     -0.000000000000
  20      0.000000000000
  21     -0.000061868808
  22      0.000000000000
  23     -0.000000000000
  24      0.000000000000
  25     -0.000000000000
  26     -0.000059987321
  27     -0.000053412242
  28     -0.000000000000
  29      0.000319765145
  30      0.000290012755
  31      0.000000000000
  32     -0.000087417322
  33     -0.000000000000
  34     -0.000000000000
  35     -0.000099285558
  36     -0.000000000000
  37      0.000000000000
  38     -0.000000000000
  39      0.000000000000
  40     -0.000000731235
  41      0.000000086792
  42     -0.000000000000
  43     -0.000143594408
  44     -0.000130089322
  45     -0.000000000000
  46     -0.000039301955
  47      0.000000000000
  48      0.000000000000
  49     -0.000044147817
 Ene=  -0.60312095900908E+01
 Spin= Alpha
 Occup=    0.537619
   1     -0.000000000000
   2      0.000000000000
   3     -0.000000000000
   4     -0.000000000000
   5      0.000000000001
   6     -0.028034718229
   7      0.075013360466
   8      0.000000000031
   9     -0.266594683078
  10      0.663257776299
  11      0.000000000002
  12     -0.013783250427
  13      0.034251043239
  14     -0.000000000000
  15      0.002364512489
  16     -0.005881183131
  17      0.000000000000
  18     -0.000254845555
  19     -0.000000000000
  20     -0.000000000000
  21      0.000102539338
  22     -0.000000000000
  23      0.000000000000
  24     -0.000000000000
  25      0.000000000000
  26      0.000097696544
  27     -0.000242476037
  28      0.000000000000
  29     -0.000538784932
  30      0.001340645168
  31     -0.000000000000
  32     -0.000395077335
  33     -0.000000000000
  34      0.000000000000
  35      0.000159359109
  36      0.000000000000
  37     -0.000000000000
  38      0.000000000000
  39     -0.000000000000
  40     -0.000000677358
  41      0.000002034629
  42      0.000000000000
  43      0.000241663804
  44     -0.000601276346
  45      0.000000000000
  46     -0.000179267558
  47     -0.000000000000
  48     -0.000000000000
  49      0.000072205201
 Ene=  -0.98271876195399E+00
 Spin= Alpha
 Occup=    1.000000
   1      0.000000000000
   2     -0.000000000000
   3      0.000000000000
   4      0.000000000000
   5      0.000000000000
   6     -0.001682504663
   7     -0.000000331290
   8      0.000000000000
   9      0.000102092031
  10     -0.000000778914
  11     -0.000000000000
  12      0.000070328540
  13      0.000001569159
  14     -0.000000000000
  15      0.000022423683
  16      0.000000819003
  17     -0.000000000000
  18     -0.000000041791
  19      0.000000000000
  20      0.000000000000
  21     -0.000003053964
  22     -0.000000000001
  23      0.000000000001
  24      0.000000000000
  25     -0.000000000001
  26      0.000061763087
  27      0.000000235198
  28     -0.000000000000
  29     -0.000011515513
  30      0.000000030844
  31     -0.000000000000
  32      0.000000019045
  33      0.000000000000
  34      0.000000000000
  35     -0.000002107102
  36     -0.000000000001
  37      0.000000000002
  38      0.000000000001
  39      0.000000000001
  40     -0.000121654126
  41     -0.000000668428
  42      0.000000000000
  43      0.000005121332
  44     -0.000000078235
  45     -0.000000000000
  46      0.000000007974
  47      0.000000000000
  48      0.000000000000
  49     -0.000003216132
 Ene=  -0.96751056498747E+00
 Spin= Alpha
 Occup=    0.000000
   1     -0.000000000000
   2      0.000000000000
   3     -0.000000000000
   4     -0.000000000000
   5      0.000000000000
   6      0.000000496498
   7      0.001784571751
   8     -0.000000000000
   9      0.000000837669
  10     -0.000111675013
  11      0.000000000000
  12     -0.000001707788
  13     -0.000068396289
  14     -0.000000000000
  15     -0.000000946387
  16     -0.000025433559
  17      0.000000000000
  18      0.000004311204
  19      0.000000000000
  20     -0.000000000000
  21      0.000000075141
  22     -0.000000000000
  23     -0.000000000000
  24     -0.000000000000
  25     -0.000000000000
  26      0.000000075229
  27     -0.000049389878
  28      0.000000000000
  29      0.000000111457
  30      0.000011354984
  31     -0.000000000000
  32      0.000001722253
  33     -0.000000000000
  34     -0.000000000000
  35     -0.000000019211
  36     -0.000000000000
  37      0.000000000000
  38      0.000000000000
  39      0.000000000000
  40      0.000000917563
  41      0.000098753555
  42      0.000000000000
  43      0.000000129166
  44     -0.000007487425
  45      0.000000000000
  46      0.000002844944
  47      0.000000000000
  48      0.000000000000
  49      0.000000044948
 Ene=  -0.85259700876326E+00
 Spin= Alpha
 Occup=    1.000000
   1      0.000000000000
   2     -0.000000000002
   3      0.000000000002
   4      0.000000000001
   5      0.000000000000
   6     -0.004851441478
   7     -0.000000735485
   8      0.000000000000
   9      0.000271435888
  10     -0.000003008197
  11     -0.000000000000
  12      0.000244274263
  13      0.000006023619
  14     -0.000000000000
  15      0.000086447879
  16      0.000003699699
  17     -0.000000000000
  18      0.000000149842
  19      0.000000000000
  20      0.000000000000
  21     -0.000003205165
  22     -0.000000000000
  23      0.000000000001
  24      0.000000000000
  25      0.000000000001
  26     -0.000069991969
  27      0.000000373042
  28      0.000000000000
  29      0.000004798069
  30     -0.000000430197
  31     -0.000000000000
  32      0.000000065754
  33      0.000000000000
  34      0.000000000000
  35      0.000004963580
  36      0.000000000000
  37     -0.000000000001
  38     -0.000000000000
  39     -0.000000000000
  40      0.000046438244
  41      0.000000027897
  42      0.000000000000
  43      0.000003044403
  44      0.000000083752
  45      0.000000000000
  46     -0.000000008544
  47     -0.000000000000
  48     -0.000000000000
  49      0.000002487678
 Ene=  -0.82430958999907E+00
 Spin= Alpha
 Occup=    0.000000
   1     -0.000000000000
   2      0.000000000000
   3     -0.000000000000
   4     -0.000000000000
   5     -0.000000000000
   6      0.000002293676
   7      0.005157965818
   8     -0.000000000000
   9      0.000003561963
  10     -0.000300158551
  11      0.000000000000
  12     -0.000007291630
  13     -0.000234646410
  14      0.000000000000
  15     -0.000004858707
  16     -0.000086560522
  17      0.000000000000
  18      0.000008701854
  19      0.000000000000
  20     -0.000000000000
  21      0.000000396656
  22      0.000000000000
  23     -0.000000000000
  24     -0.000000000000
  25     -0.000000000000
  26     -0.000001087018
  27      0.000053792006
  28     -0.000000000000
  29      0.000000219910
  30     -0.000010635717
  31      0.000000000000
  32     -0.000006011280
  33     -0.000000000000
  34     -0.000000000000
  35     -0.000000084803
  36     -0.000000000000
  37      0.000000000000
  38      0.000000000000
  39      0.000000000000
  40     -0.000000605501
  41     -0.000031905265
  42     -0.000000000000
  43     -0.000000279483
  44      0.000004959319
  45     -0.000000000000
  46     -0.000002246437
  47     -0.000000000000
  48      0.000000000000
  49     -0.000000052092
 Ene=  -0.53158392072167E+00
 Spin= Alpha
 Occup=    0.999995
   1     -0.000000000000
   2      0.000000000000
   3     -0.000000000000
   4     -0.000000000000
   5      0.000000000000
   6     -0.015724130699
   7     -0.000083642079
   8      0.000000000000
   9      0.000207146427
  10     -0.000074970988
  11     -0.000000000000
  12      0.001959395934
  13      0.000150434161
  14     -0.000000000000
  15      0.001527876868
  16      0.000152371491
  17     -0.000000000000
  18     -0.000013089831
  19     -0.000000000000
  20      0.000000000000
  21     -0.000120901992
  22     -0.000000000000
  23      0.000000000000
  24      0.000000000000
  25      0.000000000000
  26      0.000807496418
  27      0.000099094239
  28      0.000000000000
  29      0.000226184524
  30      0.000025779476
  31     -0.000000000000
  32      0.000002355683
  33      0.000000000000
  34      0.000000000000
  35      0.000046359748
  36      0.000000000000
  37     -0.000000000000
  38     -0.000000000000
  39      0.000000000000
  40      0.000442877320
  41      0.000069366507
  42      0.000000000000
  43      0.000147394903
  44      0.000022624582
  45     -0.000000000000
  46      0.000004702202
  47     -0.000000000000
  48      0.000000000000
  49      0.000038381393
 Ene=  -0.51583119888162E+00
 Spin= Alpha
 Occup=    0.000008
   1     -0.000000000000
   2      0.000000000000
   3     -0.000000000000
   4     -0.000000000000
   5      0.000000000000
   6     -0.000108578814
   7     -0.014881071229
   8      0.000000000000
   9     -0.000090138152
  10      0.000337260108
  11     -0.000000000000
  12      0.000180315879
  13      0.001581534598
  14     -0.000000000000
  15      0.000187678139
  16      0.001247942604
  17     -0.000000000000
  18     -0.000111687157
  19     -0.000000000000
  20      0.000000000000
  21     -0.000016556957
  22     -0.000000000000
  23      0.000000000000
  24      0.000000000000
  25      0.000000000000
  26      0.000142780233
  27      0.000783647981
  28      0.000000000000
  29      0.000039839550
  30      0.000252967516
  31     -0.000000000000
  32      0.000043691768
  33      0.000000000000
  34      0.000000000000
  35      0.000002083370
  36      0.000000000000
  37     -0.000000000000
  38     -0.000000000000
  39     -0.000000000000
  40      0.000109326197
  41      0.000394761532
  42      0.000000000000
  43      0.000036319299
  44      0.000112707207
  45      0.000000000000
  46      0.000034480659
  47      0.000000000000
  48     -0.000000000000
  49      0.000007031233
 Ene=  -0.45550736163672E+00
 Spin= Alpha
 Occup=    0.999910
   1      0.000000000000
   2     -0.000000000000
   3      0.000000000000
   4      0.000000000000
   5      0.000000000000
   6     -0.220160514490
   7     -0.081389683853
   8     -0.000000000000
   9     -0.127079817308
  10     -0.046983266863
  11      0.000000000000
  12      0.253078393342
  13      0.093565780940
  14     -0.000000000000
  15      0.276915340646
  16      0.102378730041
  17      0.000000000000
  18     -0.016263752244
  19      0.000000000000
  20      0.000000000000
  21     -0.043990365760
  22     -0.000000000000
  23      0.000000000000
  24     -0.000000000000
  25      0.000000000000
  26      0.524305001937
  27      0.193841816739
  28     -0.000000000000
  29      0.179003408768
  30      0.066179676638
  31      0.000000000000
  32     -0.002322343689
  33     -0.000000000000
  34      0.000000000000
  35     -0.006281431056
  36      0.000000000000
  37     -0.000000000000
  38     -0.000000000000
  39      0.000000000000
  40      0.477996623250
  41      0.176721007123
  42      0.000000000000
  43      0.165578209489
  44      0.061216311530
  45     -0.000000000000
  46      0.009792539419
  47      0.000000000000
  48     -0.000000000000
  49      0.026486926140
 Ene=  -0.43632360527424E+00
 Spin= Alpha
 Occup=    0.999902
   1     -0.000000000000
   2      0.000000000000
   3     -0.000000000000
   4     -0.000000000000
   5      0.000000000000
   6      0.077699215328
   7     -0.210136050564
   8      0.000000000000
   9      0.038418938194
  10     -0.103919875854
  11     -0.000000000000
  12     -0.076738433301
  13      0.207565951904
  14     -0.000000000000
  15     -0.083649749053
  16      0.226261127492
  17     -0.000000000000
  18     -0.043569387565