[Molden Format]
[Title]
generated by TRESC, imaginary part1 of MOs of job O3
 
[Atoms] AU
 O   1   8   -4.5402454961    7.2177128343   -2.7178598716
 O   2   8   -2.2158043353    7.0339313734   -2.7178598716
 O   3   8   -5.4895719187    9.3477159757   -2.7178598716
[GTO]
  1 0
 s  5 1.0
     2256.4894524000        0.0059167515
      338.4991392200        0.0411156308
       76.9063833050        0.1812996088
       21.4088621130        0.4670469627
        6.6523625585        0.4440133421
 s  1 1.0
        0.8121693602        1.0000000000
 s  1 1.0
        0.2558870496        1.0000000000
 p  3 1.0
       17.7535366450        0.0431495830
        3.8671566736        0.2292558699
        1.0487786113        0.5099918107
 p  1 1.0
        0.2765100171        1.0000000000
 d  1 1.0
        1.2000000000        1.0000000000
 
  2 0
 s  5 1.0
     2256.4894524000        0.0059167515
      338.4991392200        0.0411156308
       76.9063833050        0.1812996088
       21.4088621130        0.4670469627
        6.6523625585        0.4440133421
 s  1 1.0
        0.8121693602        1.0000000000
 s  1 1.0
        0.2558870496        1.0000000000
 p  3 1.0
       17.7535366450        0.0431495830
        3.8671566736        0.2292558699
        1.0487786113        0.5099918107
 p  1 1.0
        0.2765100171        1.0000000000
 d  1 1.0
        1.2000000000        1.0000000000
 
  3 0
 s  5 1.0
     2256.4894524000        0.0059167515
      338.4991392200        0.0411156308
       76.9063833050        0.1812996088
       21.4088621130        0.4670469627
        6.6523625585        0.4440133421
 s  1 1.0
        0.8121693602        1.0000000000
 s  1 1.0
        0.2558870496        1.0000000000
 p  3 1.0
       17.7535366450        0.0431495830
        3.8671566736        0.2292558699
        1.0487786113        0.5099918107
 p  1 1.0
        0.2765100171        1.0000000000
 d  1 1.0
        1.2000000000        1.0000000000
 
[5D]
[7F]
[9G]
[MO]
 Ene=  -0.19482395267942E+02
 Spin= Alpha
 Occup=    0.000000
   1      0.000002804573
   2      0.000000112726
   3     -0.000000074129
   4      0.000000004278
   5      0.000000005932
   6      0.000000419980
   7     -0.000000010373
   8     -0.000000014881
   9     -0.000000245175
  10     -0.000000000037
  11      0.000000061149
  12      0.000000128050
  13      0.000000000328
  14     -0.000000000761
  15     -0.000000000805
  16     -0.000000003757
  17      0.000000021806
  18      0.000000002152
  19     -0.000000000202
  20      0.000000002781
  21     -0.000000009797
  22      0.000000003394
  23      0.000000051670
  24      0.000000002315
  25     -0.000000009622
  26     -0.000000078040
  27     -0.000000003642
  28     -0.000000000362
  29     -0.000000001456
  30     -0.000000003835
  31      0.000000022042
  32     -0.000000000719
  33      0.000000001908
  34     -0.000000042432
  35      0.000000006436
  36     -0.000000008239
  37      0.000000059743
  38      0.000000002063
  39      0.000000034209
  40     -0.000000179164
  41      0.000000002884
  42      0.000000001970
 Ene=  -0.19482395267942E+02
 Spin= Alpha
 Occup=    1.000000
   1     -0.883383813417
   2     -0.035519885337
   3      0.023333590357
   4     -0.001345673111
   5     -0.001902410463
   6      0.000000000153
   7      0.003301712983
   8      0.004671102536
   9      0.000000000254
  10      0.000011950311
  11      0.000000001511
  12      0.000000000010
  13     -0.000098212165
  14      0.000275321126
  15      0.000224414022
  16      0.001185793869
  17     -0.006892196606
  18     -0.000678029501
  19      0.000011481792
  20     -0.000000000244
  21      0.003099521776
  22     -0.001051276712
  23     -0.000000000121
  24     -0.000732545839
  25      0.000000000121
  26      0.000000000203
  27      0.001144834942
  28      0.000119562015
  29      0.000227129247
  30      0.001185358100
  31     -0.006890848978
  32      0.000236864250
  33     -0.000634419862
  34     -0.000000000471
  35     -0.002025606027
  36      0.002570853749
  37     -0.000000000044
  38     -0.000732090234
  39     -0.000000000068
  40      0.000000003524
  41     -0.000964540690
  42     -0.000626820521
 Ene=  -0.19295133681346E+02
 Spin= Alpha
 Occup=    1.000000
   1     -0.000090841700
   2      0.000102189972
   3     -0.000451133790
   4      0.000541673456
   5     -0.000327960131
   6      0.000000000028
   7     -0.002071517496
   8      0.001417875037
   9      0.000000000163
  10     -0.000106154066
  11      0.000000002951
  12      0.000000000157
  13      0.000991417365
  14      0.000267703806
  15     -0.458556857020
  16     -0.017712176321
  17      0.009023530838
  18      0.001163615159
  19     -0.000240799262
  20     -0.000000000478
  21     -0.002474830738
  22      0.000408901152
  23     -0.000000000186
  24     -0.000018842806
  25      0.000000000222
  26      0.000000000037
  27     -0.000094181871
  28      0.000029506896
  29      0.348659345990
  30      0.013669602556
  31     -0.007349961763
  32      0.000537471549
  33     -0.000796405138
  34     -0.000000000799
  35     -0.001156017801
  36      0.001899558013
  37      0.000000000010
  38      0.000055130208
  39     -0.000000000012
  40      0.000000000363
  41     -0.000038218096
  42     -0.000053427221
 Ene=  -0.19295133681346E+02
 Spin= Alpha
 Occup=    0.000000
   1     -0.000000000033
   2     -0.000000000445
   3      0.000000001738
   4     -0.000000001504
   5      0.000000000874
   6      0.000000047936
   7      0.000000005733
   8     -0.000000003733
   9     -0.000000054200
  10      0.000000000312
  11      0.000000011399
  12     -0.000000041671
  13     -0.000000002858
  14     -0.000000000999
  15      0.000001319385
  16      0.000000050904
  17     -0.000000025805
  18     -0.000000003339
  19      0.000000001185
  20     -0.000000055057
  21      0.000000007035
  22     -0.000000001362
  23      0.000000032988
  24      0.000000000050
  25     -0.000000029785
  26     -0.000000165018
  27      0.000000000277
  28     -0.000000000111
  29     -0.000000923789
  30     -0.000000036412
  31      0.000000019677
  32     -0.000000001487
  33      0.000000003024
  34     -0.000000260983
  35      0.000000003210
  36     -0.000000005458
  37      0.000000142155
  38     -0.000000000145
  39      0.000000089088
  40     -0.000000042241
  41      0.000000000162
  42      0.000000000147
 Ene=  -0.19294986249739E+02
 Spin= Alpha
 Occup=    0.000000
   1      0.000000000703
   2     -0.000000001556
   3      0.000000006632
   4     -0.000000000215
   5     -0.000000000673
   6      0.000000030473
   7     -0.000000000383
   8      0.000000001134
   9     -0.000000047699
  10      0.000000001453
  11      0.000000025047
  12     -0.000000194481
  13     -0.000000000064
  14      0.000000001239
  15      0.000000639891
  16      0.000000023229
  17     -0.000000009065
  18     -0.000000001280
  19     -0.000000000209
  20      0.000000058154
  21      0.000000001325
  22      0.000000000506
  23     -0.000000024554
  24     -0.000000000310
  25      0.000000024625
  26      0.000000211861
  27      0.000000000164
  28     -0.000000000052
  29      0.000000960030
  30      0.000000035582
  31     -0.000000015401
  32      0.000000000776
  33     -0.000000000865
  34     -0.000000358636
  35     -0.000000000893
  36      0.000000002513
  37      0.000000178869
  38     -0.000000000309
  39      0.000000085763
  40      0.000000057971
  41     -0.000000000158
  42     -0.000000000206
 Ene=  -0.19294986249739E+02
 Spin= Alpha
 Occup=    1.000000
   1     -0.001119672785
   2      0.001212981761
   3     -0.005364110614
   4      0.000186954932
   5      0.000519246031
   6     -0.000000000021
   7      0.000219905432
   8     -0.000706048319
   9     -0.000000000105
  10     -0.001262061567
  11      0.000000002486
  12      0.000000000014
  13      0.000087983226
  14     -0.000964008683
  15     -0.560128131264
  16     -0.020405486518
  17      0.008048941335
  18      0.001143039875
  19      0.000051769443
  20     -0.000000000077
  21     -0.001231024303
  22     -0.000376128872
  23     -0.000000000179
  24      0.000224043731
  25      0.000000000220
  26      0.000000000649
  27     -0.000165282713
  28      0.000061005498
  29     -0.748767427301
  30     -0.027738794398
  31      0.011875587085
  32     -0.000601687350
  33      0.001517927945
  34      0.000000001332
  35      0.000609563475
  36     -0.002243490962
  37      0.000000000319
  38      0.000206442395
  39      0.000000000066
  40      0.000000000184
  41      0.000111153514
  42      0.000182874074
 Ene=  -0.13960559740266E+01
 Spin= Alpha
 Occup=    0.000000
   1     -0.000000019810
   2      0.000000040454
   3      0.000000021641
   4      0.000000006928
   5      0.000000010295
   6      0.000101851853
   7      0.000000002451
   8      0.000000005553
   9     -0.000011972031
  10     -0.000000001034
  11      0.000001230199
  12      0.000001248353
  13      0.000000000605
  14     -0.000000000328
  15     -0.000000010089
  16      0.000000020429
  17      0.000000005977
  18     -0.000000010811
  19      0.000000004139
  20      0.000022070976
  21     -0.000000001599
  22     -0.000000000632
  23      0.000005598224
  24     -0.000000000337
  25     -0.000002233863
  26      0.000000227448
  27      0.000000001339
  28     -0.000000000345
  29     -0.000000010396
  30      0.000000021456
  31      0.000000005133
  32      0.000000007477
  33     -0.000000007988
  34     -0.000089131017
  35     -0.000000000118
  36     -0.000000000308
  37      0.000013082873
  38     -0.000000000798
  39     -0.000000787472
  40      0.000001282541
  41     -0.000000000508
  42     -0.000000001060
 Ene=  -0.13960559740266E+01
 Spin= Alpha
 Occup=    1.000000
   1      0.134695624349
   2     -0.279377166598
   3     -0.128311245603
   4     -0.045688824584
   5     -0.064814559830
   6     -0.000000002947
   7     -0.017071369672
   8     -0.024100439741
   9     -0.000000003789
  10      0.008038042497
  11      0.000000015792
  12     -0.000000001691
  13     -0.001487523188
  14      0.004203924606
  15      0.067754670673
  16     -0.136535965814
  17     -0.043805470468
  18      0.072535710682
  19     -0.011108011402
  20     -0.000000001640
  21      0.012214928131
  22     -0.000106605737
  23      0.000000001702
  24      0.004316137034
  25     -0.000000000019
  26      0.000000002901
  27     -0.008424957904
  28      0.002557922729
  29      0.067734914617
  30     -0.136501211325
  31     -0.043815554241
  32     -0.034864783182
  33      0.064548957871
  34      0.000000005978
  35     -0.004154974576
  36      0.011493667837
  37      0.000000000450
  38      0.004312107363
  39     -0.000000000584
  40      0.000000015527
  41      0.004930182934
  42      0.007285548673
 Ene=  -0.11172641565254E+01
 Spin= Alpha
 Occup=    0.000000
   1      0.000000000193
   2     -0.000000001495
   3      0.000000003684
   4      0.000000879977
   5     -0.000000625374
   6      0.000239789690
   7      0.000000256307
   8     -0.000000178878
   9      0.000002633046
  10      0.000000000109
  11      0.000003785425
  12      0.000003720086
  13      0.000000088955
  14      0.000000031200
  15     -0.000000575699
  16      0.000001185095
  17      0.000000619434
  18     -0.000000419962
  19     -0.000000021766
  20      0.000028307836
  21     -0.000000126013
  22      0.000000006117
  23      0.000016854398
  24     -0.000000019588
  25     -0.000005173963
  26      0.000000594686
  27      0.000000049032
  28      0.000000001064
  29      0.000000575161
  30     -0.000001183389
  31     -0.000000621744
  32     -0.000000116598
  33      0.000000403482
  34     -0.000110171692
  35     -0.000000049650
  36      0.000000118536
  37      0.000015299671
  38      0.000000018972
  39      0.000000695345
  40     -0.000000904383
  41      0.000000038346
  42      0.000000029819
 Ene=  -0.11172641565254E+01
 Spin= Alpha
 Occup=    1.000000
   1      0.000019550824
   2     -0.000028623759
   3     -0.000045329024
   4     -0.190847262059
   5      0.135308409544
   6     -0.000000004129
   7     -0.055586807869
   8      0.039278416166
   9     -0.000000002605
  10     -0.000004227251
  11      0.000000019707
  12     -0.000000000077
  13     -0.019240801944
  14     -0.006807424878
  15      0.124884735571
  16     -0.257068753847
  17     -0.134560173529
  18      0.091072931690
  19      0.004139245050
  20     -0.000000014213
  21      0.027411667389
  22     -0.001525568998
  23     -0.000000000523
  24      0.004309877020
  25     -0.000000000198
  26     -0.000000000063
  27     -0.010607750472
  28     -0.000182498337
  29     -0.124903588441
  30      0.257110762306
  31      0.134608872883
  32      0.026311952167
  33     -0.087307979136
  34     -0.000000030828
  35      0.010617413466
  36     -0.025335519829
  37     -0.000000004863
  38     -0.004308267305
  39      0.000000000502
  40      0.000000002344
  41     -0.008351026128
  42     -0.006535433479
 Ene=  -0.76099903078284E+00
 Spin= Alpha
 Occup=    0.999997
   1      0.179679662491
   2     -0.399907434336
   3     -0.322671596731
   4      0.110535104820
   5      0.156532485863
   6     -0.000000789450
   7      0.050160347416
   8      0.070985080862
   9     -0.000000307983
  10     -0.007095193614
  11     -0.000000033024
  12     -0.000000035972
  13     -0.002793771758
  14      0.007902820037
  15     -0.159768344387
  16      0.331186961338
  17      0.289466885062
  18      0.104314043725
  19      0.046316185205
  20     -0.000000278931
  21      0.035433910543
  22      0.025520796091
  23     -0.000000114575
  24      0.003551119096
  25      0.000000028496
  26     -0.000000009243
  27     -0.005179537921
  28     -0.006047278405
  29     -0.159700516396
  30      0.331043063076
  31      0.289333122367
  32      0.008692693888
  33      0.113718988612
  34     -0.000000493228
  35      0.012197693723
  36      0.041894793876
  37     -0.000000157521
  38      0.003550080767
  39     -0.000000015181
  40      0.000000048321
  41      0.007825766945
  42     -0.001433437437
 Ene=  -0.76099903078284E+00
 Spin= Alpha
 Occup=    0.000003
   1      0.000203178548
   2     -0.000452208467
   3     -0.000364871672
   4      0.000124991154
   5      0.000177003600
   6      0.000659256451
   7      0.000056721453
   8      0.000080267555
   9      0.000249692795
  10     -0.000008022961
  11      0.000013620033
  12      0.000026219316
  13     -0.000003159964
  14      0.000008935992
  15     -0.000180663248
  16      0.000374500568
  17      0.000327323313
  18      0.000117956534
  19      0.000052363536
  20      0.000234526637
  21      0.000040068337
  22      0.000028855789
  23      0.000090455048
  24      0.000004015068
  25     -0.000023243345
  26      0.000002627593
  27     -0.000005857036
  28     -0.000006837834
  29     -0.000180587587
  30      0.000374339259
  31      0.000327175606
  32      0.000009836208
  33      0.000128591920
  34      0.000359991447
  35      0.000013794839
  36      0.000047373018
  37      0.000118195525
  38      0.000004015184
  39      0.000011865108
  40     -0.000025558007
  41      0.000008849661
  42     -0.000001620627
 Ene=  -0.62480062189333E+00
 Spin= Alpha
 Occup=    0.000445
   1     -0.000015349414
   2     -0.000024458105
   3     -0.000033527840
   4      0.000180713400
   5     -0.002645748688
   6      0.004441607529
   7     -0.000235192080
   8     -0.001181478795
   9      0.002538395288
  10      0.000045582997
  11      0.000130680739
  12      0.000184731974
  13      0.000068122190
  14     -0.000092692937
  15      0.000094707723
  16     -0.000212098221
  17     -0.000033324946
  18      0.000074544742
  19     -0.001379009357
  20      0.001981887894
  21     -0.000119306044
  22     -0.000611880936
  23      0.001055918596
  24      0.000007684854
  25     -0.000198867845
  26      0.000023587196
  27      0.000006387666
  28      0.000109212358
  29     -0.000830907315
  30      0.001674050033
  31      0.002015616283
  32     -0.000856047652
  33      0.001039847363
  34      0.001980484372
  35     -0.000444228957
  36      0.000437874415
  37      0.001055214167
  38      0.000047880508
  39      0.000088584608
  40     -0.000179463795
  41      0.000007565303
  42      0.000070199514
 Ene=  -0.62480062189333E+00
 Spin= Alpha
 Occup=    0.999555
   1      0.000000165377
   2      0.000000186629
   3      0.000000261272
   4     -0.000001774961
   5      0.000024956095
   6      0.473596039818
   7      0.000002184097
   8      0.000011152398
   9      0.270663035760
  10     -0.000000427944
  11      0.013933625024
  12      0.019697591318
  13     -0.000000648540
  14      0.000000870655
  15     -0.000000935493
  16      0.000002091200
  17      0.000000405226
  18     -0.000000591304
  19      0.000012963396
  20      0.211321947259
  21      0.000001170378
  22      0.000005754572
  23      0.112588877083
  24     -0.000000068385
  25     -0.021204508753
  26      0.002514942774
  27     -0.000000065275
  28     -0.000001027967
  29      0.000007823168
  30     -0.000015784665
  31     -0.000018934819
  32      0.000008121335
  33     -0.000009837473
  34      0.211178893725
  35      0.000004201064
  36     -0.000004145016
  37      0.112516964935
  38     -0.000000450763
  39      0.009445497182
  40     -0.019136100576
  41     -0.000000073848
  42     -0.000000662294
 Ene=  -0.60747402518272E+00
 Spin= Alpha
 Occup=    0.000347
   1     -0.000010097560
   2      0.000015453237
   3      0.000011659341
   4     -0.000149691501
   5     -0.000210070815
   6     -0.007997757258
   7     -0.000086613187
   8     -0.000122150372
   9     -0.004907598073
  10      0.000006150561
  11     -0.000228947596
  12     -0.000360596225
  13      0.000004664044
  14     -0.000013282312
  15     -0.000039869355
  16      0.000078329854
  17      0.000115232141
  18      0.000089239534
  19     -0.000114448871
  20     -0.003421947294
  21      0.000028445939
  22     -0.000058395541
  23     -0.001954850079
  24      0.000003606192
  25      0.000362539176
  26     -0.000043735893
  27     -0.000002914379
  28      0.000010258908
  29     -0.000039393021
  30      0.000077366255
  31      0.000114156365
  32     -0.000136946260
  33      0.000045724597
  34     -0.004184254750
  35     -0.000064280601
  36      0.000007068816
  37     -0.002211035074
  38      0.000003581032
  39     -0.000173683604
  40      0.000349674978
  41     -0.000004208589
  42      0.000009794102
 Ene=  -0.60747402518271E+00
 Spin= Alpha
 Occup=    0.999653
   1      0.011859264099
   2     -0.018151981048
   3     -0.013681661800
   4      0.175825139362
   5      0.246694251911
   6     -0.000006890832
   7      0.101731828286
   8      0.143461573526
   9     -0.000004235971
  10     -0.007223419176
  11     -0.000000187925
  12     -0.000000309614
  13     -0.005477547803
  14      0.015599480658
  15      0.046832454036
  16     -0.092009873387
  17     -0.135356134826
  18     -0.104827251128
  19      0.134404536682
  20     -0.000002951115
  21     -0.033416455007
  22      0.068575715270
  23     -0.000001678343
  24     -0.004234290552
  25      0.000000312366
  26     -0.000000035668
  27      0.003424321920
  28     -0.012047482174
  29      0.046258439739
  30     -0.090848094707
  31     -0.134062883954
  32      0.160857523307
  33     -0.053689004999
  34     -0.000003572533
  35      0.075498122281
  36     -0.008285849491
  37     -0.000001887690
  38     -0.004205704582
  39     -0.000000148253
  40      0.000000304889
  41      0.004944209970
  42     -0.011501320625
 Ene=  -0.59415011715440E+00
 Spin= Alpha
 Occup=    0.000013
   1     -0.000000080055
   2      0.000000205439
   3     -0.000000012696
   4      0.000110551141
   5     -0.000078452638
   6      0.000639019591
   7      0.000052459159
   8     -0.000037785481
   9      0.000547223542
  10      0.000000015089
  11      0.000007829035
  12      0.000057577670
  13      0.000004883210
  14      0.000001616010
  15      0.000040890783
  16     -0.000082177206
  17     -0.000102645224
  18     -0.000109388314
  19     -0.000018015181
  20      0.000236764654
  21     -0.000047670200
  22     -0.000007971745
  23      0.000137310591
  24     -0.000003664359
  25     -0.000029124145
  26      0.000004430541
  27      0.000005465706
  28      0.000001483288
  29     -0.000041059333
  30      0.000082528324
  31      0.000103245063
  32     -0.000022714337
  33      0.000108506714
  34      0.001198720717
  35     -0.000009606684
  36      0.000047216902
  37      0.000474543611
  38      0.000003690502
  39      0.000026694534
  40     -0.000055385365
  41      0.000005106056
  42      0.000002391156
 Ene=  -0.59415011715439E+00
 Spin= Alpha
 Occup=    0.999987
   1      0.000069835599
   2     -0.000176822349
   3      0.000001796171
   4     -0.095956328895
   5      0.068128996201
   6      0.000000578363
   7     -0.045531031634
   8      0.032806816398
   9      0.000000537435
  10     -0.000013532275
  11     -0.000000001846
  12      0.000000059283
  13     -0.004240173466
  14     -0.001401821605
  15     -0.035493812462
  16      0.071331054184
  17      0.089097410303
  18      0.094952218409
  19      0.015645292735
  20      0.000000200787
  21      0.041379592237
  22      0.006925893679
  23      0.000000114180
  24      0.003179413237
  25     -0.000000027025
  26      0.000000004527
  27     -0.004744922841
  28     -0.001288803364
  29      0.035645960042
  30     -0.071649022502
  31     -0.089628973444
  32      0.019723139229
  33     -0.094193211210
  34      0.000001323066
  35      0.008345866016
  36     -0.040995108829
  37      0.000000519306
  38     -0.003203432814
  39      0.000000026309
  40     -0.000000058884
  41     -0.004432522089
  42     -0.002076219049
 Ene=  -0.36803903260047E+00
 Spin= Alpha
 Occup=    0.998995
   1      0.000000648896
   2     -0.000001705662
   3     -0.000001317988
   4      0.000020407986
   5     -0.000028633988
   6     -0.000075087225
   7     -0.000016747244
   8      0.000002093120
   9     -0.000071573528
  10      0.000000349934
  11      0.030586832713
  12     -0.021618780252
  13      0.000012840594
  14      0.000004619678
  15     -0.000000977435
  16      0.000006446029
  17      0.000006111017
  18     -0.000036847601
  19      0.000237764642
  20      0.479065276178
  21     -0.000031429720
  22      0.000151754812
  23      0.340480817814
  24     -0.000001271821
  25     -0.019145958802
  26      0.001017709367
  27      0.000001723755
  28     -0.000007395453
  29     -0.000001365315
  30     -0.000002003258
  31      0.000004155501
  32     -0.000226211146
  33     -0.000040831583
  34     -0.479153998252
  35     -0.000149964794
  36     -0.000016452818
  37     -0.340540985082
  38      0.000001507129
  39     -0.007353240000
  40      0.017711420041
  41     -0.000003230677
  42      0.000007317109
 Ene=  -0.36803903260047E+00
 Spin= Alpha
 Occup=    0.001005
   1      0.000028368562
   2     -0.000074113913
   3     -0.000060107296
   4      0.000888901352
   5     -0.001246216986
   6      0.000001702931
   7     -0.000728619145
   8      0.000089059015
   9      0.000001618011
  10      0.000015292848
  11     -0.000702610090
  12      0.000496603580
  13      0.000559019853
  14      0.000201086266
  15     -0.000042446862
  16      0.000280465674
  17      0.000265882803
  18     -0.001604601424
  19      0.010349459278
  20     -0.011004598278
  21     -0.001368572958
  22      0.006605475230
  23     -0.007821183493
  24     -0.000055501961
  25      0.000439804895
  26     -0.000023377322
  27      0.000075054232
  28     -0.000321937253
  29     -0.000059974903
  30     -0.000088321531
  31      0.000188684529
  32     -0.009849042047
  33     -0.001774793254
  34      0.011006637119
  35     -0.006529049453
  36     -0.000715897594
  37      0.007822570811
  38      0.000065959179
  39      0.000168908696
  40     -0.000406847304
  41     -0.000140594786
  42      0.000318537833
 Ene=  -0.35185849595215E+00
 Spin= Alpha
 Occup=    0.999524
   1     -0.001642849918
   2      0.003172597103
   3      0.006524141134
   4     -0.012660558032
   5      0.001219368337
   6      0.000000676784
   7      0.009792957628
   8     -0.011188652970
   9      0.000000414354
  10      0.000311585441
  11      0.000000534189
  12     -0.000000367121
  13     -0.007637525756
  14     -0.001982101347
  15      0.001958905609
  16     -0.007449892210
  17     -0.006144751919
  18      0.027215301765
  19     -0.126379382866
  20      0.000007582290
  21      0.020821293450
  22     -0.085288817151
  23      0.000005867848
  24      0.000728503928
  25     -0.000000339631
  26      0.000000017073
  27     -0.001134239502
  28      0.004402178696
  29     -0.001111945740
  30      0.004696635198
  31      0.005837420881
  32      0.141710435574
  33      0.033025638852
  34     -0.000008536974
  35      0.097923594324
  36      0.018994219899
  37     -0.000006203881
  38     -0.000602554091
  39     -0.000000119497
  40      0.000000296072
  41      0.002444751017
  42     -0.004158452016
 Ene=  -0.35185849595215E+00
 Spin= Alpha
 Occup=    0.000476
   1      0.000001586834
   2     -0.000003065770
   3     -0.000006303960
   4      0.000012221623
   5     -0.000001188054
   6      0.000691990630
   7     -0.000009447567
   8      0.000010788968
   9      0.000429052453
  10     -0.000000300148
  11      0.000545278077
  12     -0.000374888021
  13      0.000007372313
  14      0.000001915694
  15     -0.000001889684
  16      0.000007186466
  17      0.000005930153
  18     -0.000026259362
  19      0.000122022355
  20      0.007746867516
  21     -0.000020089366
  22      0.000082351946
  23      0.006004185601
  24     -0.000000706371
  25     -0.000346827959
  26      0.000017450821
  27      0.000001093874
  28     -0.000004249814
  29      0.000001071313
  30     -0.000004529359
  31     -0.000005622631
  32     -0.000136766116
  33     -0.000031870952
  34     -0.008714724144
  35     -0.000094504028
  36     -0.000018341625
  37     -0.006334613196
  38      0.000000581454
  39     -0.000123765164
  40      0.000301307775
  41     -0.000002359892
  42      0.000004009884
 Ene=  -0.33699308511867E+00
 Spin= Alpha
 Occup=    0.999977
   1     -0.036052931159
   2      0.067831200117
   3      0.148928682547
   4     -0.107440085049
   5     -0.149548327455
   6      0.000004091061
   7     -0.063114432571
   8     -0.090054259958
   9      0.000002032371
  10      0.008344850340
  11      0.000000095118
  12     -0.000000083524
  13     -0.006345942586
  14      0.016096122382
  15      0.007024753184
  16     -0.027664354527
  17      0.013287788690
  18      0.130386174569
  19      0.225686163691
  20     -0.000001898879
  21      0.078783543860
  22      0.171575482899
  23     -0.000000343621
  24      0.001882061600
  25     -0.000000089586
  26     -0.000000002146
  27     -0.005805768340
  28     -0.003887727163
  29      0.007041292809
  30     -0.027294833089
  31      0.013174165974
  32      0.188110876186
  33      0.201321491375
  34     -0.000005151974
  35      0.149088395165
  36      0.132945773984
  37     -0.000002877292
  38      0.001746541109
  39     -0.000000024274
  40      0.000000030458
  41      0.007199637362
  42      0.000012489970
 Ene=  -0.33699308511867E+00
 Spin= Alpha
 Occup=    0.000023
   1     -0.000106341383
   2      0.000200077936
   3      0.000439267125
   4     -0.000316898766
   5     -0.000441083844
   6     -0.001400760714
   7     -0.000186160072
   8     -0.000265606560
   9     -0.000698133197
  10      0.000024612811
  11     -0.000032622725
  12      0.000028910697
  13     -0.000018719610
  14      0.000047475210
  15      0.000020719745
  16     -0.000081596425
  17      0.000039194787
  18      0.000384579275
  19      0.000665646564
  20      0.000647014761
  21      0.000232372257
  22      0.000506054593
  23      0.000118251304
  24      0.000005552289
  25      0.000031426394
  26      0.000000863095
  27     -0.000017124710
  28     -0.000011466808
  29      0.000020770531
  30     -0.000080512813
  31      0.000038848976
  32      0.000554842909
  33      0.000593804369
  34      0.001764747617
  35      0.000439748194
  36      0.000392130051
  37      0.000993938255
  38      0.000005150975
  39      0.000008615861
  40     -0.000012387558
  41      0.000021235162
  42      0.000000039565
 Ene=  -0.17396424505108E+00
 Spin= Alpha
 Occup=    0.000000
   1     -0.000204437895
   2      0.000409616890
   3      0.001014233848
   4     -0.000430474344
   5     -0.000672608347
   6      0.003773140852
   7     -0.000564111821
   8     -0.000920014080
   9      0.002836468260
  10      0.000069292555
  11     -0.000020609163
  12     -0.000029143502
  13     -0.000017664020
  14      0.000102161975
  15      0.000063312377
  16     -0.000226587969
  17      0.000148920032
  18      0.000673829353
  19      0.001011953964
  20     -0.003219049283
  21      0.000580894502
  22      0.001339780798
  23     -0.002683859254
  24      0.000011350525
  25     -0.000024781531
  26     -0.000011602723
  27     -0.000033004203
  28     -0.000021089965
  29      0.000054805315
  30     -0.000215381502
  31      0.000234859037
  32      0.000456645003
  33      0.001008865517
  34     -0.003218742485
  35      0.000723573258
  36      0.001092212301
  37     -0.002683511978
  38      0.000019889421
  39     -0.000002655688
  40     -0.000027225225
  41      0.000043491329
  42      0.000020521323
 Ene=  -0.17396424505107E+00
 Spin= Alpha
 Occup=    0.000000
   1      0.000001653263
   2     -0.000003322601
   3     -0.000008158307
   4      0.000003470875
   5      0.000005408713
   6      0.465976073837