[Molden Format]
[Title]
generated by TRESC, imaginary part2 of MOs of job O3
 
[Atoms] AU
 O   1   8   -4.5402454961    7.2177128343   -2.7178598716
 O   2   8   -2.2158043353    7.0339313734   -2.7178598716
 O   3   8   -5.4895719187    9.3477159757   -2.7178598716
[GTO]
  1 0
 s  5 1.0
     2256.4894524000        0.0059167515
      338.4991392200        0.0411156308
       76.9063833050        0.1812996088
       21.4088621130        0.4670469627
        6.6523625585        0.4440133421
 s  1 1.0
        0.8121693602        1.0000000000
 s  1 1.0
        0.2558870496        1.0000000000
 p  3 1.0
       17.7535366450        0.0431495830
        3.8671566736        0.2292558699
        1.0487786113        0.5099918107
 p  1 1.0
        0.2765100171        1.0000000000
 d  1 1.0
        1.2000000000        1.0000000000
 
  2 0
 s  5 1.0
     2256.4894524000        0.0059167515
      338.4991392200        0.0411156308
       76.9063833050        0.1812996088
       21.4088621130        0.4670469627
        6.6523625585        0.4440133421
 s  1 1.0
        0.8121693602        1.0000000000
 s  1 1.0
        0.2558870496        1.0000000000
 p  3 1.0
       17.7535366450        0.0431495830
        3.8671566736        0.2292558699
        1.0487786113        0.5099918107
 p  1 1.0
        0.2765100171        1.0000000000
 d  1 1.0
        1.2000000000        1.0000000000
 
  3 0
 s  5 1.0
     2256.4894524000        0.0059167515
      338.4991392200        0.0411156308
       76.9063833050        0.1812996088
       21.4088621130        0.4670469627
        6.6523625585        0.4440133421
 s  1 1.0
        0.8121693602        1.0000000000
 s  1 1.0
        0.2558870496        1.0000000000
 p  3 1.0
       17.7535366450        0.0431495830
        3.8671566736        0.2292558699
        1.0487786113        0.5099918107
 p  1 1.0
        0.2765100171        1.0000000000
 d  1 1.0
        1.2000000000        1.0000000000
 
[5D]
[7F]
[9G]
[MO]
 Ene=   0.92643333190206E+00
 Spin= Alpha
 Occup=    0.000000
   1      0.000001496268
   2     -0.000010817618
   3      0.000048854243
   4      0.000051645235
   5     -0.000045569651
   6     -0.000261397480
   7     -0.000051632023
   8      0.000072667879
   9      0.000506035531
  10     -0.000000634619
  11      0.006212483989
  12     -0.004390775535
  13      0.000021889189
  14      0.000006842754
  15      0.000007466893
  16     -0.000021235944
  17      0.000015461390
  18     -0.000105229077
  19     -0.000052555920
  20      0.620226030394
  21      0.000151100623
  22      0.000032927956
  23     -0.743915352264
  24     -0.000004552530
  25     -0.017416433058
  26      0.011329852738
  27      0.000010116683
  28     -0.000003323389
  29     -0.000003710832
  30      0.000004716133
  31     -0.000040396767
  32      0.000043940754
  33      0.000106894993
  34     -0.619987078200
  35     -0.000029504568
  36     -0.000122515922
  37      0.743351132551
  38      0.000006067732
  39     -0.016492472110
  40      0.012616360430
  41      0.000006215204
  42      0.000009730145
 Ene=   0.92643333190206E+00
 Spin= Alpha
 Occup=    0.000000
   1      0.000132338087
   2     -0.000957565315
   3      0.004386860052
   4      0.004693875315
   5     -0.004138662445
   6      0.000002985523
   7     -0.004681613202
   8      0.006570080399
   9     -0.000005740940
  10     -0.000059373349
  11     -0.000068276615
  12      0.000048259435
  13      0.001990912345
  14      0.000621283742
  15      0.000675444261
  16     -0.001913211134
  17      0.001390519777
  18     -0.009570657396
  19     -0.004785283751
  20     -0.006816602719
  21      0.013743766712
  22      0.003011011324
  23      0.008176065824
  24     -0.000415747849
  25      0.000191423014
  26     -0.000124519301
  27      0.000920790606
  28     -0.000301231518
  29     -0.000340325563
  30      0.000438660881
  31     -0.003640965515
  32      0.003997151076
  33      0.009725354722
  34      0.006813932457
  35     -0.002673553630
  36     -0.011168565292
  37     -0.008169711393
  38      0.000551333342
  39      0.000181257884
  40     -0.000138656506
  41      0.000563918269
  42      0.000883527755
 Ene=   0.96607801983299E+00
 Spin= Alpha
 Occup=    0.000000
   1      0.000001595147
   2     -0.000026800928
   3     -0.000033543668
   4      0.000053024606
   5     -0.000121760531
   6     -0.615420137406
   7     -0.000482885581
   8      0.000496772293
   9      1.230970768656
  10      0.000013586785
  11     -0.016851879106
  12     -0.023853376807
  13     -0.000004242932
  14      0.000006095133
  15     -0.000007744548
  16      0.000010858912
  17      0.000342988949
  18      0.000137223379
  19      0.000252296340
  20      0.447020082902
  21     -0.000396447910
  22     -0.000439231041
  23     -0.840473280482
  24     -0.000001156577
  25     -0.021818783571
  26     -0.011590753495
  27     -0.000003588851
  28     -0.000023985472
  29      0.000021524701
  30     -0.000103819487
  31     -0.000278052625
  32     -0.000163517544
  33     -0.000107351280
  34      0.447435661720
  35      0.000196156068
  36      0.000342016862
  37     -0.840896728044
  38      0.000011946690
  39     -0.003624058249
  40     -0.024456144144
  41     -0.000003452486
  42      0.000020676184
 Ene=   0.96607801983299E+00
 Spin= Alpha
 Occup=    0.000000
   1      0.000021535508
   2     -0.000363625612
   3     -0.000452595490
   4      0.000699952963
   5     -0.001639106407
   6      0.046051959406
   7     -0.006441294204
   8      0.006663468215
   9     -0.092113614039
  10      0.000184392189
  11      0.001261027024
  12      0.001784953252
  13     -0.000057511061
  14      0.000082642125
  15     -0.000102339761
  16      0.000136188695
  17      0.004592334983
  18      0.001845446233
  19      0.003375998114
  20     -0.033450671675
  21     -0.005317166128
  22     -0.005881840324
  23      0.062892818779
  24     -0.000014264862
  25      0.001632706991
  26      0.000867334537
  27     -0.000049428745
  28     -0.000320991376
  29      0.000288900605
  30     -0.001394916145
  31     -0.003716251339
  32     -0.002183053095
  33     -0.001425832838
  34     -0.033481405166
  35      0.002611406830
  36      0.004558538876
  37      0.062924082895
  38      0.000160585297
  39      0.000271192726
  40      0.001830047218
  41     -0.000044677387
  42      0.000276530809
 Ene=   0.98486038404802E+00
 Spin= Alpha
 Occup=    0.000000
   1      0.000083923235
   2     -0.001696032636
   3     -0.001911416446
   4     -0.002748157381
   5     -0.003868000928
   6     -0.013556921299
   7      0.005081115475
   8      0.007092851688
   9      0.026693297815
  10      0.000912428289
  11     -0.000383650516
  12     -0.000506643275
  13     -0.000161662319
  14      0.000452899741
  15      0.000431124355
  16     -0.002949390144
  17      0.001840238744
  18      0.002989184299
  19      0.002277913780
  20      0.009257127530
  21     -0.004444258792
  22     -0.004836955314
  23     -0.017481899725
  24      0.000375109472
  25     -0.000456182616
  26     -0.000270280355
  27     -0.000475968363
  28     -0.000187452224
  29      0.000429823084
  30     -0.002943222717
  31      0.001890746973
  32      0.001176392711
  33      0.003591886392
  34      0.010706304213
  35     -0.003115214677
  36     -0.005855552404
  37     -0.019157546660
  38      0.000373472482
  39     -0.000060066621
  40     -0.000551750028
  41      0.000489120669
  42      0.000149689344
 Ene=   0.98486038404802E+00
 Spin= Alpha
 Occup=    0.000000
   1     -0.008648963877
   2      0.174787149990
   3      0.196976946763
   4      0.283213077971
   5      0.398621058702
   6     -0.000131377433
   7     -0.523639662456
   8     -0.730963141082
   9      0.000258696218
  10     -0.094030929019
  11     -0.000003745664
  12     -0.000004905554
  13      0.016660403016
  14     -0.046673833910
  15     -0.044429728576
  16      0.303950715489
  17     -0.189644124721
  18     -0.308051972305
  19     -0.234755494308
  20      0.000089769094
  21      0.458004007911
  22      0.498480799195
  23     -0.000169478610
  24     -0.038657354702
  25     -0.000004414561
  26     -0.000002624688
  27      0.049051243418
  28      0.019318124403
  29     -0.044296444626
  30      0.303320020822
  31     -0.194853738656
  32     -0.121237110510
  33     -0.370163408670
  34      0.000103745031
  35      0.321044461758
  36      0.603446500186
  37     -0.000185641008
  38     -0.038488788897
  39     -0.000000583173
  40     -0.000005360141
  41     -0.050406701777
  42     -0.015426831629
 Ene=   0.10586949756597E+01
 Spin= Alpha
 Occup=    0.000000
   1     -0.000001034266
   2      0.000002575899
   3     -0.000038521584
   4      0.004509760265
   5     -0.003210342641
   6     -0.001745445859
   7     -0.017596215540
   8      0.012464368846
   9      0.003115045419
  10      0.000004212097
  11     -0.000025358138
  12     -0.000083839913
  13      0.000774537321
  14      0.000277035327
  15      0.000145944867
  16     -0.000818480591
  17      0.011629664361
  18     -0.000695509553
  19      0.004202391410
  20      0.002399986284
  21     -0.005299113771
  22     -0.008101578991
  23     -0.003411843835
  24     -0.000379397464
  25     -0.000090681810
  26     -0.000008368752
  27      0.000525405543
  28     -0.000770824619
  29     -0.000143177176
  30      0.000796802750
  31     -0.011592039976
  32     -0.004191184609
  33     -0.000715045777
  34     -0.000111312823
  35      0.005858652428
  36      0.007638630630
  37     -0.000651290494
  38      0.000382058133
  39     -0.000057111979
  40     -0.000027188359
  41     -0.000072985516
  42      0.000930840930
 Ene=   0.10586949756597E+01
 Spin= Alpha
 Occup=    0.000000
   1     -0.000092986134
   2      0.000230606832
   3     -0.003465095915
   4      0.406262501246
   5     -0.289204992744
   6      0.000019425709
   7     -1.585156336366
   8      1.122857020057
   9     -0.000034619510
  10      0.000379347901
  11      0.000000289443
  12      0.000000931959
  13      0.069774241447
  14      0.024956725373
  15      0.013147498608
  16     -0.073732836989
  17      1.047657863605
  18     -0.062655357560
  19      0.378575137136
  20     -0.000026679866
  21     -0.477369629672
  22     -0.729834701531
  23      0.000037922797
  24     -0.034177710844
  25      0.000001011782
  26      0.000000091593
  27      0.047331184926
  28     -0.069439955198
  29     -0.012897992795
  30      0.071779415379
  31     -1.044272076063
  32     -0.377562110891
  33     -0.064415296079
  34      0.000001312583
  35      0.527775595551
  36      0.688128018885
  37      0.000007152015
  38      0.034418155204
  39      0.000000631542
  40      0.000000300343
  41     -0.006574601082
  42      0.083855369987
 Ene=   0.11872905369988E+01
 Spin= Alpha
 Occup=    0.000000
   1      0.007170552843
   2     -0.055066538773
   3      0.173685286850
   4     -0.004624523967
   5     -0.006634737390
   6     -0.000351298807
   7      0.033927286330
   8      0.049039629743
   9      0.000308144610
  10      0.002141472827
  11     -0.000026256307
  12     -0.000006722294
  13     -0.000074228237
  14      0.000130381419
  15     -0.002895947939
  16      0.021497692110
  17     -0.085227204848
  18     -0.001184381086
  19     -0.005270000031
  20     -0.000329524318
  21      0.045714690566
  22     -0.005977639859
  23      0.000233066527
  24      0.002240769991
  25      0.000030503354
  26      0.000005103176
  27     -0.001218929296
  28     -0.000657704783
  29     -0.002980600987
  30      0.022072909735
  31     -0.086614971591
  32     -0.004420763874
  33     -0.002938861556
  34     -0.000152027500
  35     -0.021293817146
  36      0.041795029917
  37      0.000040541843
  38      0.002212770547
  39      0.000003295852
  40      0.000018188633
  41      0.001365648559
  42      0.000241800651
 Ene=   0.11872905369988E+01
 Spin= Alpha
 Occup=    0.000000
   1      0.149324782251
   2     -1.146745372835
   3      3.616947905015
   4     -0.096304567037
   5     -0.138166369286
   6      0.000016842568
   7      0.706527901189
   8      1.021235437388
   9     -0.000014727943
  10      0.044595491477
  11      0.000001263919
  12      0.000000305782
  13     -0.001545739777
  14      0.002715189229
  15     -0.060307461219
  16      0.447684454540
  17     -1.774835217340
  18     -0.024664646142
  19     -0.109745956515
  20      0.000015819076
  21      0.951997090964
  22     -0.124483036156
  23     -0.000011205828
  24      0.046663322015
  25     -0.000001469094
  26     -0.000000251891
  27     -0.025383869230
  28     -0.013696543687
  29     -0.062070006737
  30      0.459661091154
  31     -1.803730236167
  32     -0.092061363738
  33     -0.061201096691
  34      0.000007395608
  35     -0.443437204991
  36      0.870368981351
  37     -0.000002046329
  38      0.046080359677
  39     -0.000000157166
  40     -0.000000830643
  41      0.028439220629
  42      0.005035398981
 Ene=   0.12073548545063E+01
 Spin= Alpha
 Occup=    0.000000
   1      0.000476180431
   2     -0.003616636793
   3      0.012213065186
   4     -0.213457398790
   5      0.150041846948
   6      0.000001626071
   7      1.980662130517
   8     -1.394619988712
   9     -0.000000461563
  10      0.000126690983
  11      0.000000033613
  12      0.000000123989
  13      0.102993987776
  14      0.036466863406
  15     -0.155196889724
  16      1.061059229752
  17     -2.719888734372
  18     -0.254881465737
  19      0.222648093851
  20      0.000003330258
  21      1.591732946018
  22     -0.248549696928
  23     -0.000002996476
  24     -0.048457916481
  25     -0.000000198791
  26     -0.000000054998
  27      0.003595185034
  28     -0.023814877650
  29      0.154834599834
  30     -1.058321415468
  31      2.707894292136
  32     -0.295659723968
  33      0.165415711300
  34      0.000001987610
  35      0.762802357736
  36     -1.411565751387
  37     -0.000001685462
  38      0.048772222798
  39      0.000000007233
  40     -0.000000096920
  41     -0.011982251376
  42      0.020832713543
 Ene=   0.12073548545063E+01
 Spin= Alpha
 Occup=    0.000000
   1     -0.000003582175
   2      0.000027212263
   3     -0.000091875516
   4      0.001602121188
   5     -0.001126125043
   6      0.000205768019
   7     -0.014865999301
   8      0.010467310737
   9     -0.000041177929
  10     -0.000000956929
  11      0.000018367975
  12      0.000015967376
  13     -0.000773026961
  14     -0.000273706685
  15      0.001164840826
  16     -0.007963855643
  17      0.020414359104
  18      0.001913028219
  19     -0.001671083569
  20      0.000449349736
  21     -0.011946886372
  22      0.001865509375
  23     -0.000413010062
  24      0.000363698868
  25     -0.000031552413
  26     -0.000007289172
  27     -0.000026982809
  28      0.000178745749
  29     -0.001162113728
  30      0.007943252937
  31     -0.020324119595
  32      0.002219097432
  33     -0.001241547420
  34      0.000284558872
  35     -0.005725225085
  36      0.010594542379
  37     -0.000244360098
  38     -0.000366064646
  39      0.000001769351
  40     -0.000010864723
  41      0.000089930870
  42     -0.000156366121
 Ene=   0.19619563638880E+01
 Spin= Alpha
 Occup=    0.000000
   1      0.000000406906
   2     -0.000011592370
   3      0.000046486053
   4      0.000001305221
   5      0.000001488728
   6      0.000002344839
   7     -0.000169126394
   8      0.000143611146
   9     -0.000000862995
  10     -0.000000861526
  11     -0.011476976416
  12      0.008097637642
  13     -0.000046170469
  14     -0.000032863026
  15     -0.000000693310
  16     -0.000014266219
  17      0.000139550671
  18     -0.000039567084
  19     -0.000031203450
  20      0.001149140619
  21     -0.000061929550
  22      0.000007376158
  23      0.001645940436
  24     -0.000043438090
  25      0.009285282058
  26      0.000581968669
  27      0.000006437360
  28      0.000070858620
  29      0.000001867810
  30      0.000015110173
  31     -0.000183273991
  32      0.000004988679
  33      0.000062633310
  34     -0.001146474720
  35     -0.000033802314
  36      0.000072973390
  37     -0.001645185018
  38      0.000059451553
  39      0.002554168592
  40     -0.008937110478
  41      0.000037624636
  42     -0.000038092638
 Ene=   0.19619563638880E+01
 Spin= Alpha
 Occup=    0.000000
   1     -0.000000022824
   2      0.000000831444
   3     -0.000003451000
   4     -0.000000076263
   5     -0.000000117154
   6      0.000033010087
   7      0.000011614490
   8     -0.000010015134
   9     -0.000012078437
  10      0.000000088929
  11     -0.160202869177
  12      0.113026168134
  13      0.000003164192
  14      0.000002361473
  15      0.000000059048
  16      0.000000914343
  17     -0.000009460734
  18      0.000002686379
  19      0.000002185609
  20      0.016040380464
  21      0.000004220286
  22     -0.000000514336
  23      0.022974964969
  24      0.000002978779
  25      0.129608965893
  26      0.008124795625
  27     -0.000000458436
  28     -0.000004973601
  29     -0.000000137322
  30     -0.000001023797
  31      0.000012764563
  32     -0.000000300783
  33     -0.000004388652
  34     -0.016002700854
  35      0.000002338884
  36     -0.000005078061
  37     -0.022963854452
  38     -0.000004172230
  39      0.035652991981
  40     -0.124745704247
  41     -0.000002572573
  42      0.000002613144
 Ene=   0.20504401403471E+01
 Spin= Alpha
 Occup=    0.000000
   1     -0.025431975133
   2      0.215982706706
   3     -0.504800586699
   4     -0.024193458722
   5     -0.034184700777
   6      0.000000007530
   7     -0.140918441529
   8     -0.199439168363
   9     -0.000000009109
  10     -0.302002939072
  11      0.000000093512
  12     -0.000000127153
  13     -0.208115446040
  14      0.587812838806
  15     -0.015795729455
  16      0.050942830395
  17      0.185945865800
  18     -0.091508121935
  19     -0.032047494385
  20     -0.000000011117
  21     -0.075450297625
  22     -0.021050691826
  23     -0.000000010447
  24     -0.090507726780
  25     -0.000000088234
  26     -0.000000025597
  27     -0.137761514478
  28     -0.380260778181
  29     -0.015810351891
  30      0.051012685159
  31      0.185836933585
  32      0.000440661392
  33     -0.096970904697
  34      0.000000013232
  35      0.005235043553
  36     -0.078117013053
  37      0.000000025029
  38     -0.090445852881
  39     -0.000000046281
  40      0.000000092432
  41      0.346313942430
  42     -0.208706897135
 Ene=   0.20504401403471E+01
 Spin= Alpha
 Occup=    0.000000
   1     -0.000001848241
   2      0.000015699768
   3     -0.000036697368
   4     -0.000001756288
   5     -0.000002492005
   6     -0.000055347118
   7     -0.000010254267
   8     -0.000014494527
   9     -0.000056609934
  10     -0.000021968429
  11      0.000387591205
  12      0.000682980610
  13     -0.000015142586
  14      0.000042749007
  15     -0.000001150018
  16      0.000003710970
  17      0.000013517151
  18     -0.000006658247
  19     -0.000002332806
  20     -0.000011729900
  21     -0.000005482796
  22     -0.000001532517
  23     -0.000027079370
  24     -0.000006581531
  25     -0.000315659378
  26      0.000242276487
  27     -0.000010020125
  28     -0.000027654814
  29     -0.000001148701
  30      0.000003704729
  31      0.000013510103
  32      0.000000029088
  33     -0.000007050566
  34      0.000022963743
  35      0.000000382051
  36     -0.000005678475
  37     -0.000084706053
  38     -0.000006586446
  39      0.000265616135
  40     -0.000332670603
  41      0.000025189164
  42     -0.000015185056
 Ene=   0.21388649450324E+01
 Spin= Alpha
 Occup=    0.000000
   1      0.000030064925
   2     -0.000265938380
   3      0.000651979346
   4     -0.000000852944
   5      0.000078150182
   6      0.016207805271
   7      0.000196079000
   8      0.000225036747
   9      0.011027989651
  10      0.000200104771
  11     -0.089485841312
  12     -0.126645939203
  13      0.000168950429
  14     -0.000560457038
  15      0.000017875837
  16     -0.000060343632
  17     -0.000241818494
  18      0.000099335162
  19      0.000046530882
  20      0.007967413906
  21      0.000103126060
  22      0.000002527768
  23      0.004335748895
  24      0.000008643415
  25      0.073132273709
  26     -0.046506464523
  27      0.000100924902
  28      0.000350697127
  29      0.000019930399
  30     -0.000052030038
  31     -0.000250568824
  32     -0.000008791715
  33      0.000148368150
  34      0.007957180474
  35     -0.000052807601
  36      0.000086798347
  37      0.004347839965
  38      0.000132709165
  39     -0.068245343932
  40      0.053403081379
  41     -0.000380368711
  42      0.000212335950
 Ene=   0.21388649450324E+01
 Spin= Alpha
 Occup=    0.000000
   1     -0.000008244490
   2      0.000072906338
   3     -0.000178771390
   4      0.000000256434
   5     -0.000021421780
   6      0.059166143633
   7     -0.000053834386
   8     -0.000061612335
   9      0.040257349399
  10     -0.000054801340
  11     -0.326665463593
  12     -0.462317287413
  13     -0.000046307928
  14      0.000153526594
  15     -0.000004872508
  16      0.000016398031
  17      0.000066488597
  18     -0.000027217833
  19     -0.000012752163
  20      0.029084838325
  21     -0.000028346018
  22     -0.000000683596
  23      0.015827508084
  24     -0.000002358254
  25      0.266967235192
  26     -0.169770451275
  27     -0.000027649107
  28     -0.000096052823
  29     -0.000005462927
  30      0.000014271477
  31      0.000068606577
  32      0.000002414839
  33     -0.000040639257
  34      0.029047447446
  35      0.000014462642
  36     -0.000023768909
  37      0.015871666601
  38     -0.000036360242
  39     -0.249127650194
  40      0.194946422100
  41      0.000104187855
  42     -0.000058173666
 Ene=   0.25022460299415E+01
 Spin= Alpha
 Occup=    0.000000
   1     -0.000834958201
   2      0.005810945217
   3     -0.011832392701
   4     -0.036138497653
   5      0.027444453635
   6     -0.000000027784
   7      0.122994767106
   8     -0.093968474158
   9      0.000000024060
  10      0.004084165191
  11     -0.000000021425
  12     -0.000000000003
  13      0.071190423215
  14      0.027007039545
  15      0.006066400115
  16     -0.026142049634
  17     -0.058652128429
  18      0.030218167073
  19     -0.011834934353
  20      0.000000034051
  21      0.021579878882
  22      0.024978509164
  23     -0.000000035794
  24      0.050146164271
  25      0.000000035218
  26     -0.000000591461
  27      0.057108345152
  28     -0.068077673467
  29     -0.006520731481
  30      0.027546280732
  31      0.067527197954
  32      0.022261393455
  33     -0.027241489533
  34      0.000000009918
  35     -0.012990315753
  36     -0.031459163121
  37      0.000000000583
  38     -0.039557890110
  39      0.000000575226
  40      0.000000147674
  41      0.002419577815
  42      0.087014417250
 Ene=   0.25022460299415E+01
 Spin= Alpha
 Occup=    0.000000
   1     -0.000000262428
   2      0.000001820277
   3     -0.000003671055
   4     -0.000014333300
   5      0.000010715152
   6      0.000076272911
   7      0.000048820943
   8     -0.000036686395
   9     -0.000020246510
  10      0.000001301185
  11      0.000021166376
  12     -0.000044984872
  13      0.000028134299
  14      0.000010512383
  15      0.000002409676
  16     -0.000010356002
  17     -0.000023543283
  18      0.000012035932
  19     -0.000004668172
  20     -0.000066047606
  21      0.000008692289
  22      0.000009760043
  23      0.000057182457
  24      0.000019370568
  25      0.000009396099
  26      0.001317969985
  27      0.000022504445
  28     -0.000026785099
  29     -0.000002554680
  30      0.000010810672
  31      0.000026279744
  32      0.000008751052
  33     -0.000010634129
  34     -0.000024838970
  35     -0.000005268502
  36     -0.000012300555
  37     -0.000006496167
  38     -0.000016105685
  39     -0.001030989995
  40     -0.000126975476
  41      0.000000949381
  42      0.000034440897
 Ene=   0.25084388238082E+01
 Spin= Alpha
 Occup=    0.000000
   1     -0.000031333855
   2      0.000222479854
   3     -0.000471310896
   4      0.000036246585
   5      0.000050755496
   6     -0.000071510191
   7     -0.000133456343
   8     -0.000186981348
   9     -0.000204618459
  10      0.000148565188
  11      0.000167023543
  12      0.000091857008
  13     -0.000024987974
  14      0.000068820953
  15     -0.000008388845
  16      0.000024441286
  17      0.000181163968
  18     -0.000056239310
  19     -0.000003399405
  20     -0.000037058839
  21     -0.000077911918
  22      0.000045917977
  23      0.000087202257
  24      0.000212044108
  25     -0.000454911067
  26     -0.001604566535
  27      0.000020062556
  28     -0.000039047142
  29     -0.000008284928
  30      0.000023970437
  31      0.000180335727
  32      0.000015356657
  33     -0.000053687919
  34     -0.000008366912
  35      0.000069438099
  36     -0.000057794486
  37      0.000121032645
  38      0.000212703256
  39     -0.000215859287
  40     -0.000725519958
  41      0.000008913903
  42     -0.000044417142
 Ene=   0.25084388238082E+01
 Spin= Alpha
 Occup=    0.000000
   1      0.036401147024
   2     -0.258457791353
   3      0.547521907836
   4     -0.042286795938
   5     -0.058836831677
   6     -0.000000061791
   7      0.155657092672
   8      0.216784241975
   9     -0.000000147664
  10     -0.172589147099
  11      0.000000121808
  12      0.000000078892
  13      0.029367489728
  14     -0.079829287457
  15      0.009775235957
  16     -0.028520734209
  17     -0.210771354780
  18      0.065484459897
  19      0.003895607969
  20     -0.000000022008
  21      0.090628457521
  22     -0.053230166869
  23      0.000000059589
  24     -0.246101238105
  25     -0.000000327078
  26     -0.000001314319
  27     -0.023022068907
  28      0.045026651829
  29      0.009595611448
  30     -0.027723598659
  31     -0.209180970495
  32     -0.017738267263
  33      0.062250870669
  34     -0.000000001642
  35     -0.080735863993
  36      0.066983607546
  37      0.000000088393
  38     -0.247336638785
  39     -0.000000091124
  40     -0.000000546405
  41     -0.010356969208
  42      0.052048239481
 Ene=   0.25540122056033E+01
 Spin= Alpha
 Occup=    0.000000
   1     -0.000007862518
   2      0.000055518062
   3     -0.000112946930
   4     -0.000013381030
   5      0.000029845508
   6      0.000005054668
   7      0.000041292852
   8     -0.000099093996
   9     -0.000064383615
  10      0.000045617327
  11     -0.006829170032
  12      0.004704139061
  13      0.000042832566
  14      0.000026927784
  15      0.000002675781
  16     -0.000016643781
  17      0.000016166630
  18      0.000007758239
  19     -0.000010508570
  20     -0.017438062058
  21     -0.000011240416
  22      0.000032510801
  23      0.025369089429
  24      0.000029983315
  25     -0.035587519597
  26      0.564476268669
  27      0.000008531803
  28     -0.000055389384
  29     -0.000007335949
  30      0.000031920657
  31      0.000068169366
  32      0.000022776791
  33     -0.000032329035
  34      0.017419801508
  35     -0.000000790240
  36     -0.000024249496
  37     -0.025282511412
  38      0.000060072604
  39     -0.544451785893
  40     -0.155224868108
  41     -0.000017229645
  42      0.000037132565
 Ene=   0.25540122056033E+01
 Spin= Alpha
 Occup=    0.000000
   1     -0.000122976819
   2      0.000868178088
   3     -0.001766127745
   4     -0.000209618971
   5      0.000466825247
   6     -0.000000322637
   7      0.000646784659
   8     -0.001549991917
   9      0.000004121672
  10      0.000712801857
  11      0.000437277678
  12     -0.000301245907
  13      0.000670593556
  14      0.000421308423
  15      0.000042020373
  16     -0.000261179310
  17      0.000252985029
  18      0.000121914117
  19     -0.000164601559
  20      0.001116614019
  21     -0.000176040884
  22      0.000508815250
  23     -0.001624454982
  24      0.000466269056
  25      0.002278771567
  26     -0.036144946978
  27      0.000132289315
  28     -0.000866907696
  29     -0.000114760645
  30      0.000499491915
  31      0.001065963801
  32      0.000356493634
  33     -0.000505716175
  34     -0.001115435423
  35     -0.000013001815
  36     -0.000379246859
  37      0.001618910859
  38      0.000941256909
  39      0.034862759549
  40      0.009939486308
  41     -0.000270810861
  42      0.000580642480
 Ene=   0.25732511287134E+01
 Spin= Alpha
 Occup=    0.000000
   1     -0.000179697450
   2      0.001230643825
   3     -0.002271117886
   4      0.000329576919
   5      0.000212515873
   6      0.000570274502
   7     -0.001166055841
   8     -0.000576649560
   9      0.021880989829
  10      0.001006412517
  11     -0.010309906446
  12     -0.014625394454
  13     -0.000411588236
  14      0.000324277630
  15     -0.000096667905
  16      0.000406096737
  17      0.000939051222
  18     -0.000525270854
  19      0.000079394963
  20      0.005494651607
  21     -0.000305992635
  22      0.000027436284
  23     -0.011951926405
  24      0.001252236267
  25      0.044854023942
  26      0.103578941394
  27      0.000026167128
  28      0.000264865369
  29     -0.000026452056
  30      0.000051685721
  31      0.000633747139
  32     -0.000047730391
  33     -0.000243255852
  34      0.005503609608
  35      0.000477946261
  36     -0.000093400906
  37     -0.011954670128
  38      0.000464001562
  39      0.082425859283
  40      0.076808325098
  41      0.000609213195
  42     -0.000192841506
 Ene=   0.25732511287134E+01
 Spin= Alpha
 Occup=    0.000000
   1     -0.000042221713
   2      0.000289147858
   3     -0.000533518708
   4      0.000077527982
   5      0.000049897729
   6     -0.002422217368