[Molden Format]
[Title]
generated by TRESC, real part1 of MOs of job O3
 
[Atoms] AU
 O   1   8   -4.5402454961    7.2177128343   -2.7178598716
 O   2   8   -2.2158043353    7.0339313734   -2.7178598716
 O   3   8   -5.4895719187    9.3477159757   -2.7178598716
[GTO]
  1 0
 s  5 1.0
     2256.4894524000        0.0059167515
      338.4991392200        0.0411156308
       76.9063833050        0.1812996088
       21.4088621130        0.4670469627
        6.6523625585        0.4440133421
 s  1 1.0
        0.8121693602        1.0000000000
 s  1 1.0
        0.2558870496        1.0000000000
 p  3 1.0
       17.7535366450        0.0431495830
        3.8671566736        0.2292558699
        1.0487786113        0.5099918107
 p  1 1.0
        0.2765100171        1.0000000000
 d  1 1.0
        1.2000000000        1.0000000000
 
  2 0
 s  5 1.0
     2256.4894524000        0.0059167515
      338.4991392200        0.0411156308
       76.9063833050        0.1812996088
       21.4088621130        0.4670469627
        6.6523625585        0.4440133421
 s  1 1.0
        0.8121693602        1.0000000000
 s  1 1.0
        0.2558870496        1.0000000000
 p  3 1.0
       17.7535366450        0.0431495830
        3.8671566736        0.2292558699
        1.0487786113        0.5099918107
 p  1 1.0
        0.2765100171        1.0000000000
 d  1 1.0
        1.2000000000        1.0000000000
 
  3 0
 s  5 1.0
     2256.4894524000        0.0059167515
      338.4991392200        0.0411156308
       76.9063833050        0.1812996088
       21.4088621130        0.4670469627
        6.6523625585        0.4440133421
 s  1 1.0
        0.8121693602        1.0000000000
 s  1 1.0
        0.2558870496        1.0000000000
 p  3 1.0
       17.7535366450        0.0431495830
        3.8671566736        0.2292558699
        1.0487786113        0.5099918107
 p  1 1.0
        0.2765100171        1.0000000000
 d  1 1.0
        1.2000000000        1.0000000000
 
[5D]
[7F]
[9G]
[MO]
 Ene=  -0.19482395267942E+02
 Spin= Alpha
 Occup=    0.000000
   1     -0.000002841708
   2     -0.000000114208
   3      0.000000074821
   4     -0.000000004226
   5     -0.000000006132
   6     -0.000000294814
   7      0.000000010525
   8      0.000000014958
   9      0.000000172047
  10      0.000000000153
  11     -0.000000084333
  12     -0.000000060819
  13     -0.000000000340
  14      0.000000000870
  15      0.000000000632
  16      0.000000003806
  17     -0.000000022050
  18     -0.000000002034
  19      0.000000000042
  20      0.000000046373
  21      0.000000009844
  22     -0.000000003361
  23     -0.000000044984
  24     -0.000000002350
  25      0.000000187945
  26      0.000000001562
  27      0.000000003668
  28      0.000000000372
  29      0.000000000363
  30      0.000000003775
  31     -0.000000022053
  32      0.000000000881
  33     -0.000000002020
  34     -0.000000018149
  35     -0.000000006513
  36      0.000000008201
  37     -0.000000033324
  38     -0.000000002363
  39      0.000000087004
  40     -0.000000027294
  41     -0.000000003101
  42     -0.000000002180
 Ene=  -0.19482395267942E+02
 Spin= Alpha
 Occup=    1.000000
   1      0.444501483204
   2      0.017872912174
   3     -0.011741002199
   4      0.000676525530
   5      0.000957672907
   6     -0.000000000076
   7     -0.001660837827
   8     -0.002350772528
   9     -0.000000000122
  10     -0.000006013810
  11     -0.000000000767
  12     -0.000000000077
  13      0.000049053581
  14     -0.000138666423
  15     -0.000116149258
  16     -0.000596833462
  17      0.003467928467
  18      0.000341148044
  19     -0.000005844821
  20      0.000000000123
  21     -0.001559629899
  22      0.000529084499
  23      0.000000000052
  24      0.000368524694
  25     -0.000000000053
  26     -0.000000000109
  27     -0.000575919118
  28     -0.000060470975
  29     -0.000111057382
  30     -0.000596283222
  31      0.003467425974
  32     -0.000119129868
  33      0.000319272793
  34      0.000000000237
  35      0.001019143527
  36     -0.001293624532
  37      0.000000000031
  38      0.000368453141
  39      0.000000000184
  40     -0.000000001777
  41      0.000485253939
  42      0.000315733307
 Ene=  -0.19295133681346E+02
 Spin= Alpha
 Occup=    1.000000
   1     -0.000148997863
   2      0.000158991384
   3     -0.000702556105
   4      0.000758668273
   5     -0.000450498225
   6      0.000000000077
   7     -0.002888348296
   8      0.001969185821
   9      0.000000000215
  10     -0.000165365750
  11      0.000000004149
  12     -0.000000000079
  13      0.001385098125
  14      0.000359921300
  15     -0.647646110439
  16     -0.024999175507
  17      0.012703864292
  18      0.001639512501
  19     -0.000336319544
  20     -0.000000000664
  21     -0.003470798629
  22      0.000566073854
  23     -0.000000000260
  24     -0.000023245895
  25      0.000000000339
  26      0.000000000072
  27     -0.000133992789
  28      0.000041125928
  29      0.476421037512
  30      0.018700667357
  31     -0.010096622552
  32      0.000741322997
  33     -0.001091167656
  34     -0.000000001080
  35     -0.001604852203
  36      0.002620884455
  37     -0.000000000029
  38      0.000079758287
  39      0.000000000012
  40      0.000000000473
  41     -0.000051200408
  42     -0.000072438425
 Ene=  -0.19295133681346E+02
 Spin= Alpha
 Occup=    0.000000
   1     -0.000000000553
   2      0.000000000338
   3     -0.000000001661
   4     -0.000000001673
   5      0.000000001408
   6      0.000000076509
   7      0.000000006940
   8     -0.000000004978
   9     -0.000000089419
  10     -0.000000000847
  11     -0.000000097537
  12     -0.000000031482
  13     -0.000000003006
  14     -0.000000001524
  15      0.000001101941
  16      0.000000043452
  17     -0.000000024017
  18     -0.000000003464
  19      0.000000000825
  20     -0.000000392709
  21      0.000000007563
  22     -0.000000001656
  23      0.000000210064
  24      0.000000000218
  25     -0.000000072803
  26      0.000000044953
  27      0.000000000183
  28     -0.000000000027
  29     -0.000001621343
  30     -0.000000062527
  31      0.000000031516
  32     -0.000000002995
  33      0.000000003611
  34     -0.000000131106
  35      0.000000004475
  36     -0.000000007595
  37      0.000000076738
  38     -0.000000000034
  39     -0.000000057842
  40     -0.000000069886
  41      0.000000000215
  42      0.000000000288
 Ene=  -0.19294986249739E+02
 Spin= Alpha
 Occup=    0.000000
   1      0.000000000704
   2     -0.000000001141
   3      0.000000005043
   4     -0.000000000749
   5     -0.000000000084
   6     -0.000000005402
   7      0.000000002018
   8     -0.000000000924
   9      0.000000015550
  10      0.000000001347
  11      0.000000187518
  12     -0.000000022018
  13     -0.000000001378
  14      0.000000000467
  15      0.000001002914
  16      0.000000037772
  17     -0.000000017195
  18     -0.000000002226
  19      0.000000000255
  20      0.000000300217
  21      0.000000003827
  22     -0.000000000233
  23     -0.000000144494
  24     -0.000000000145
  25     -0.000000039649
  26     -0.000000011862
  27      0.000000000265
  28     -0.000000000099
  29      0.000000235147
  30      0.000000007813
  31     -0.000000001695
  32     -0.000000001170
  33     -0.000000000364
  34     -0.000000191181
  35      0.000000001261
  36     -0.000000000218
  37      0.000000092737
  38     -0.000000000254
  39     -0.000000208966
  40     -0.000000101764
  41     -0.000000000032
  42     -0.000000000096
 Ene=  -0.19294986249739E+02
 Spin= Alpha
 Occup=    1.000000
   1      0.000385803200
   2     -0.000417255711
   3      0.001845263701
   4     -0.000057180122
   5     -0.000183684713
   6      0.000000000076
   7     -0.000104176445
   8      0.000263065236
   9      0.000000000006
  10      0.000434157458
  11     -0.000000000817
  12     -0.000000000117
  13     -0.000016989351
  14      0.000336384103
  15      0.187079150561
  16      0.006801601381
  17     -0.002655063319
  18     -0.000378767309
  19     -0.000021602562
  20      0.000000000026
  21      0.000391157921
  22      0.000135635714
  23      0.000000000060
  24     -0.000077582427
  25     -0.000000000071
  26     -0.000000000220
  27      0.000055719473
  28     -0.000021041618
  29      0.263190737105
  30      0.009760392193
  31     -0.004199099890
  32      0.000215513715
  33     -0.000534458130
  34     -0.000000000467
  35     -0.000226435689
  36      0.000800111183
  37     -0.000000000113
  38     -0.000070506367
  39      0.000000000040
  40     -0.000000000054
  41     -0.000039284155
  42     -0.000063501675
 Ene=  -0.13960559740266E+01
 Spin= Alpha
 Occup=    0.000000
   1      0.000000027175
   2     -0.000000056262
   3     -0.000000023999
   4     -0.000000011283
   5     -0.000000014720
   6     -0.000072080109
   7     -0.000000004079
   8     -0.000000002436
   9      0.000008470992
  10      0.000000002013
  11     -0.000000378264
  12     -0.000001232039
  13     -0.000000000830
  14      0.000000000795
  15      0.000000014014
  16     -0.000000027842
  17     -0.000000009526
  18      0.000000012400
  19     -0.000000001699
  20      0.000102467043
  21      0.000000002754
  22     -0.000000000320
  23     -0.000011910617
  24      0.000000001537
  25     -0.000002351208
  26      0.000000411591
  27     -0.000000001660
  28      0.000000000530
  29      0.000000013421
  30     -0.000000026875
  31     -0.000000010406
  32     -0.000000009971
  33      0.000000013191
  34     -0.000055015215
  35     -0.000000001022
  36      0.000000004651
  37     -0.000001307105
  38      0.000000000858
  39     -0.000001296071
  40      0.000002610278
  41      0.000000001008
  42      0.000000002171
 Ene=  -0.13960559740266E+01
 Spin= Alpha
 Occup=    1.000000
   1     -0.196687687873
   2      0.407957188527
   3      0.187364984030
   4      0.066988300539
   5      0.094452360761
   6     -0.000000002858
   7      0.024893839810
   8      0.035216740492
   9      0.000000003516
  10     -0.011737453739
  11     -0.000000021920
  12      0.000000002732
  13      0.002185863779
  14     -0.006133884711
  15     -0.098978444794
  16      0.199463644448
  17      0.064018116827
  18     -0.105931542702
  19      0.016448253093
  20      0.000000003381
  21     -0.017855011494
  22      0.000127895102
  23     -0.000000001454
  24     -0.006301166544
  25      0.000000001480
  26     -0.000000003992
  27      0.012299895443
  28     -0.003737108665
  29     -0.098868614118
  30      0.199235650883
  31      0.063929427700
  32      0.050692170136
  33     -0.094321408058
  34     -0.000000010821
  35      0.006087295068
  36     -0.016756962919
  37      0.000000001889
  38     -0.006298126566
  39      0.000000000284
  40     -0.000000022286
  41     -0.007202434809
  42     -0.010638751177
 Ene=  -0.11172641565254E+01
 Spin= Alpha
 Occup=    0.000000
   1      0.000000000772
   2     -0.000000002560
   3      0.000000000014
   4      0.000000972942
   5     -0.000000684565
   6      0.000338884573
   7      0.000000283922
   8     -0.000000200768
   9      0.000003719380
  10      0.000000000342
  11      0.000003719486
  12      0.000006414813
  13      0.000000098062
  14      0.000000034719
  15     -0.000000635233
  16      0.000001307257
  17      0.000000683960
  18     -0.000000461899
  19     -0.000000024119
  20     -0.000106795077
  21     -0.000000138907
  22      0.000000007227
  23      0.000022172784
  24     -0.000000022424
  25     -0.000002977218
  26      0.000000587954
  27      0.000000054084
  28      0.000000001003
  29      0.000000635248
  30     -0.000001307352
  31     -0.000000683854
  32     -0.000000128413
  33      0.000000443817
  34     -0.000008910454
  35     -0.000000053791
  36      0.000000127288
  37      0.000023266127
  38      0.000000021922
  39      0.000002673030
  40     -0.000005274566
  41      0.000000042659
  42      0.000000031869
 Ene=  -0.11172641565254E+01
 Spin= Alpha
 Occup=    1.000000
   1     -0.000100915814
   2      0.000196882383
   3      0.000180646771
   4     -0.207905440677
   5      0.146570789822
   6      0.000000000746
   7     -0.060418562604
   8      0.042740582307
   9     -0.000000000900
  10      0.000000166565
  11      0.000000024379
  12     -0.000000000487
  13     -0.020917130526
  14     -0.007413144003
  15      0.135761796427
  16     -0.279466245254
  17     -0.146315516662
  18      0.099002968526
  19      0.004721365175
  20     -0.000000012703
  21      0.029813182128
  22     -0.001682025296
  23     -0.000000000810
  24      0.004681522601
  25     -0.000000000863
  26      0.000000000824
  27     -0.011523516174
  28     -0.000196073942
  29     -0.135840418465
  30      0.279616323992
  31      0.146359917619
  32      0.028825621479
  33     -0.094880818337
  34     -0.000000040824
  35      0.011520166708
  36     -0.027548576237
  37     -0.000000002719
  38     -0.004689242319
  39      0.000000000344
  40      0.000000003654
  41     -0.009090047518
  42     -0.007111006353
 Ene=  -0.76099903078284E+00
 Spin= Alpha
 Occup=    0.999997
   1     -0.055253795374
   2      0.122976652529
   3      0.099225679571
   4     -0.034253093677
   5     -0.047950252664
   6      0.000000537836
   7     -0.015439699854
   8     -0.021818293071
   9      0.000000209112
  10      0.002181856404
  11      0.000000022942
  12      0.000000017499
  13      0.000863924785
  14     -0.002428502940
  15      0.049025323206
  16     -0.101625121165
  17     -0.088839885820
  18     -0.032108841165
  19     -0.013994411240
  20      0.000000341482
  21     -0.010886704253
  22     -0.007795775832
  23      0.000000108234
  24     -0.001093037122
  25     -0.000000023551
  26      0.000000003761
  27      0.001597424540
  28      0.001848279158
  29      0.049215513247
  30     -0.102019230002
  31     -0.089148702012
  32     -0.002917392878
  33     -0.035023770159
  34      0.000000171520
  35     -0.003796859514
  36     -0.012909688802
  37      0.000000072979
  38     -0.001090668434
  39      0.000000007198
  40     -0.000000021440
  41     -0.002410024181
  42      0.000452537576
 Ene=  -0.76099903078284E+00
 Spin= Alpha
 Occup=    0.000003
   1     -0.000062482304
   2      0.000139065211
   3      0.000112204227
   4     -0.000038734739
   5     -0.000054222839
   6     -0.000466574829
   7     -0.000017460683
   8     -0.000024675342
   9     -0.000176714818
  10      0.000002466931
  11     -0.000016605749
  12     -0.000013633275
  13      0.000000977358
  14     -0.000002746361
  15      0.000055437907
  16     -0.000114918171
  17     -0.000100459133
  18     -0.000036302478
  19     -0.000015824088
  20     -0.000299215191
  21     -0.000012309883
  22     -0.000008814772
  23     -0.000093503741
  24     -0.000001236428
  25      0.000021563757
  26     -0.000001886537
  27      0.000001805972
  28      0.000002089772
  29      0.000055653790
  30     -0.000115365072
  31     -0.000100809396
  32     -0.000003305538
  33     -0.000039607301
  34     -0.000121528696
  35     -0.000004294557
  36     -0.000014601558
  37     -0.000054164334
  38     -0.000001233470
  39     -0.000006664481
  40      0.000013273678
  41     -0.000002725448
  42      0.000000511649
 Ene=  -0.62480062189333E+00
 Spin= Alpha
 Occup=    0.000445
   1      0.000067076700
   2      0.000108027273
   3      0.000147270515
   4      0.005517157582
   5      0.007147498787
   6     -0.002615455802
   7      0.002876967074
   8      0.003878641990
   9     -0.001494756545
  10     -0.000199985747
  11     -0.000076950447
  12     -0.000108781928
  13     -0.000153978199
  14      0.000457836688
  15      0.001720310591
  16     -0.003421630066
  17     -0.004581930196
  18     -0.003076472545
  19      0.003929575433
  20     -0.001166938819
  21     -0.001046727121
  22      0.001901724663
  23     -0.000621746947
  24     -0.000126474131
  25      0.000117096132
  26     -0.000013904691
  27      0.000102273136
  28     -0.000342078693
  29      0.001509901160
  30     -0.002992960076
  31     -0.004115746723
  32      0.004835177031
  33     -0.001263507371
  34     -0.001166353924
  35      0.002161906820
  36     -0.000180454766
  37     -0.000621405478
  38     -0.000117322959
  39     -0.000052151179
  40      0.000105691150
  41      0.000154144698
  42     -0.000332467966
 Ene=  -0.62480062189333E+00
 Spin= Alpha
 Occup=    0.999555
   1     -0.000000651813
   2     -0.000000972335
   3     -0.000001333760
   4     -0.000051750972
   5     -0.000067351540
   6     -0.279761185464
   7     -0.000027007816
   8     -0.000036537713
   9     -0.159885229012
  10      0.000001880893
  11     -0.008230723384
  12     -0.011635770479
  13      0.000001456222
  14     -0.000004304949
  15     -0.000016111772
  16      0.000032039226
  17      0.000042944476
  18      0.000028801062
  19     -0.000036979408
  20     -0.124820375846
  21      0.000009783423
  22     -0.000017896579
  23     -0.066504751973
  24      0.000001184892
  25      0.012525141143
  26     -0.001487282334
  27     -0.000000955010
  28      0.000003219994
  29     -0.000014242122
  30      0.000028245371
  31      0.000038781475
  32     -0.000045513889
  33      0.000012025305
  34     -0.124758010965
  35     -0.000020347668
  36      0.000001753526
  37     -0.066469072906
  38      0.000001106647
  39     -0.005578288614
  40      0.011305248249
  41     -0.000001444521
  42      0.000003129742
 Ene=  -0.60747402518272E+00
 Spin= Alpha
 Occup=    0.000347
   1     -0.000012977461
   2      0.000019864847
   3      0.000014977599
   4     -0.000190553595
   5     -0.000271225304
   6      0.005630390341
   7     -0.000110857579
   8     -0.000157289218
   9      0.003455019358
  10      0.000007903035
  11      0.000198176785
  12      0.000227721090
  13      0.000006063634
  14     -0.000017043983
  15     -0.000050706439
  16      0.000099587413
  17      0.000146900455
  18      0.000114191583
  19     -0.000146527425
  20      0.003221168981
  21      0.000036186876
  22     -0.000074919606
  23      0.001649653119
  24      0.000004607941
  25     -0.000282071700
  26      0.000034258826
  27     -0.000003719086
  28      0.000013190804
  29     -0.000051148328
  30      0.000100486413
  31      0.000147880205
  32     -0.000176673375
  33      0.000059047506
  34      0.002133971943
  35     -0.000082840203
  36      0.000009390725
  37      0.001283274933
  38      0.000004628279
  39      0.000110050863
  40     -0.000222039821
  41     -0.000005382283
  42      0.000012595876
 Ene=  -0.60747402518271E+00
 Spin= Alpha
 Occup=    0.999653
   1      0.015241389824
   2     -0.023328816148
   3     -0.017583466408
   4      0.223917983212
   5      0.318495507679
   6      0.000004412036
   7      0.130250925917
   8      0.184722784758
   9      0.000002711351
  10     -0.009283411745
  11      0.000000164370
  12      0.000000179608
  13     -0.007117453834
  14      0.020020639917
  15      0.059596729321
  16     -0.117049275485
  17     -0.172638248264
  18     -0.134221664936
  19      0.172101543945
  20      0.000002547514
  21     -0.042545889054
  22      0.087995464676
  23      0.000001303839
  24     -0.005413464235
  25     -0.000000223227
  26      0.000000028403
  27      0.004372572141
  28     -0.015492322213
  29      0.060041855599
  30     -0.117956194408
  31     -0.173613785120
  32      0.207494550525
  33     -0.069260390778
  34      0.000001695309
  35      0.097291395563
  36     -0.010980327886
  37      0.000001017360
  38     -0.005433444232
  39      0.000000088104
  40     -0.000000172109
  41      0.006326520998
  42     -0.014791991831
 Ene=  -0.59415011715440E+00
 Spin= Alpha
 Occup=    0.000013
   1     -0.000000046070
   2      0.000000102687
   3      0.000000083774
   4     -0.000354777746
   5      0.000250766414
   6      0.000907949433
   7     -0.000169244982
   8      0.000119492509
   9      0.000778025653
  10      0.000000002269
  11      0.000057729114
  12      0.000048943816
  13     -0.000015530874
  14     -0.000005521580
  15     -0.000131311667
  16      0.000263914991
  17      0.000329939344
  18      0.000351393678
  19      0.000052209489
  20      0.001359399815
  21      0.000152864753
  22      0.000023380379
  23      0.000553768501
  24      0.000011786612
  25     -0.000075430692
  26      0.000008682526
  27     -0.000017530414
  28     -0.000004538892
  29      0.000131321051
  30     -0.000263938387
  31     -0.000329884314
  32      0.000067265072
  33     -0.000348797244
  34      0.000683004893
  35      0.000028702634
  36     -0.000151974279
  37      0.000316520723
  38     -0.000011779059
  39      0.000024353954
  40     -0.000047497428
  41     -0.000016492130
  42     -0.000007483406
 Ene=  -0.59415011715439E+00
 Spin= Alpha
 Occup=    0.999987
   1      0.000041848859
   2     -0.000088834887
   3     -0.000073809717
   4      0.308311735498
   5     -0.217780832891
   6      0.000001300244
   7      0.147082446156
   8     -0.103758193546
   9      0.000001037714
  10     -0.000005652315
  11      0.000000103360
  12      0.000000062608
  13      0.013491978681
  14      0.004803241965
  15      0.114106779376
  16     -0.229334455123
  17     -0.286715917188
  18     -0.305343308120
  19     -0.045300466734
  20      0.000001687282
  21     -0.132830368395
  22     -0.020282481977
  23      0.000000714974
  24     -0.010241033486
  25     -0.000000100191
  26      0.000000012895
  27      0.015232289262
  28      0.003938340415
  29     -0.114077300660
  30      0.229280658613
  31      0.286557230612
  32     -0.058402317343
  33      0.303023852298
  34      0.000000794264
  35     -0.024914419695
  36      0.132041249094
  37      0.000000390790
  38      0.010232239807
  39      0.000000031938
  40     -0.000000055856
  41      0.014330595004
  42      0.006499678746
 Ene=  -0.36803903260047E+00
 Spin= Alpha
 Occup=    0.998995
   1      0.000001624715
   2     -0.000004237631
   3     -0.000003439636
   4     -0.000027421749
   5     -0.000015561046
   6     -0.000026424260
   7     -0.000006428790
   8     -0.000019529967
   9     -0.000017988224
  10      0.000000863586
  11      0.000665045441
  12     -0.000466634688
  13     -0.000005262637
  14     -0.000001694175
  15     -0.000002980182
  16      0.000003721028
  17      0.000012507857
  18      0.000015219480
  19     -0.000080659890
  20      0.010406468006
  21      0.000017194803
  22     -0.000054461354
  23      0.007390809610
  24      0.000000859796
  25     -0.000414699914
  26      0.000022262814
  27     -0.000001229627
  28      0.000003460812
  29     -0.000002823627
  30      0.000007167204
  31      0.000013238925
  32      0.000106252033
  33      0.000021961942
  34     -0.010377473979
  35      0.000065837762
  36      0.000013193572
  37     -0.007380670360
  38     -0.000000270618
  39     -0.000159509431
  40      0.000384774569
  41      0.000001427549
  42     -0.000002268231
 Ene=  -0.36803903260047E+00
 Spin= Alpha
 Occup=    0.001005
   1      0.000070806397
   2     -0.000184696917
   3     -0.000149889633
   4     -0.001194525775
   5     -0.000677484824
   6      0.000000611120
   7     -0.000280000874
   8     -0.000849932859
   9      0.000000399245
  10      0.000037595273
  11     -0.000015002068
  12      0.000010522494
  13     -0.000228989644
  14     -0.000073645768
  15     -0.000129842865
  16      0.000162254956
  17      0.000544777469
  18      0.000661395487
  19     -0.003508212638
  20     -0.000234752004
  21      0.000748044666
  22     -0.002368633936
  23     -0.000166718637
  24      0.000037401199
  25      0.000009351016
  26     -0.000000502320
  27     -0.000053500148
  28      0.000150547770
  29     -0.000122847893
  30      0.000311734968
  31      0.000576274307
  32      0.004623925184
  33      0.000956502814
  34      0.000234030022
  35      0.002865172223
  36      0.000574498025
  37      0.000166454327
  38     -0.000011755306
  39      0.000003596742
  40     -0.000008678761
  41      0.000062142833
  42     -0.000098653931
 Ene=  -0.35185849595215E+00
 Spin= Alpha
 Occup=    0.999524
   1     -0.000501064507
   2      0.000970109795
   3      0.001966032128
   4      0.030399376159
   5     -0.023907349369
   6      0.000000856361
   7     -0.041930319401
   8      0.028257436035
   9      0.000000557693
  10      0.000097485806
  11     -0.000000369860
  12      0.000000276272
  13      0.025847183122
  14      0.009373744118
  15     -0.005248660459
  16      0.020839364511
  17      0.020937790474
  18     -0.074182321816
  19      0.476585931688
  20     -0.000006305058
  21     -0.061333539697
  22      0.323642759090
  23     -0.000004469615
  24     -0.002307015556
  25      0.000000223323
  26     -0.000000011396
  27      0.003173328614
  28     -0.016094164368
  29      0.005490055778
  30     -0.021638830590
  31     -0.020963644186
  32     -0.470026461569
  33     -0.084151138379
  34      0.000005159766
  35     -0.322415459534
  36     -0.047132099072
  37      0.000004139695
  38      0.002348525530
  39      0.000000089879
  40     -0.000000231155
  41     -0.007493929140
  42      0.014501107889
 Ene=  -0.35185849595215E+00
 Spin= Alpha
 Occup=    0.000476
   1      0.000000481558
   2     -0.000000933746
   3     -0.000001880488
   4     -0.000029313501
   5      0.000023042668
   6      0.000948403235
   7      0.000040418612
   8     -0.000027242449
   9      0.000589213264
  10     -0.000000094221
  11     -0.000388268845
  12      0.000288819324
  13     -0.000024922671
  14     -0.000009039102
  15      0.000005060470
  16     -0.000020093855
  17     -0.000020183719
  18      0.000071552725
  19     -0.000459543698
  20     -0.006677636312
  21      0.000059153833
  22     -0.000312071667
  23     -0.004735295929
  24      0.000002227128
  25      0.000230949609
  26     -0.000011297868
  27     -0.000003061615
  28      0.000015519187
  29     -0.000005291536
  30      0.000020862612
  31      0.000020201527
  32      0.000453229903
  33      0.000081132058
  34      0.005358297452
  35      0.000310888766
  36      0.000045446670
  37      0.004286207738
  38     -0.000002266283
  39      0.000099420833
  40     -0.000241133820
  41      0.000007226482
  42     -0.000013985042
 Ene=  -0.33699308511867E+00
 Spin= Alpha
 Occup=    0.999977
   1      0.048438251669
   2     -0.091133448454
   3     -0.200089380294
   4      0.141906866980
   5      0.202651667510
   6     -0.000003055695
   7      0.085482215841
   8      0.120508933804
   9     -0.000001521700
  10     -0.011211676128
  11      0.000000150030
  12     -0.000000090959
  13      0.007335838862
  14     -0.022047146251
  15     -0.009463636610
  16      0.036806823199
  17     -0.017702817782
  18     -0.171597025120
  19     -0.322664975046
  20      0.000004892240
  21     -0.102466550393
  22     -0.244301493930
  23      0.000002997206
  24     -0.002386721968
  25     -0.000000073000
  26      0.000000012309
  27      0.007587466218
  28      0.005877879803
  29     -0.009433892462
  30      0.037031026673
  31     -0.017852129016
  32     -0.233200411758
  33     -0.267364592918
  34      0.000000402164
  35     -0.186179380322
  36     -0.177202786802
  37     -0.000000542312
  38     -0.002488544701
  39     -0.000000038611
  40      0.000000106013
  41     -0.009426299003
  42     -0.000659570152
 Ene=  -0.33699308511867E+00
 Spin= Alpha
 Occup=    0.000023
   1      0.000142861482
   2     -0.000268787009
   3     -0.000590125035
   4      0.000418537404
   5      0.000597692675
   6      0.001032599839
   7      0.000252121458
   8      0.000355428048
   9      0.000514793551
  10     -0.000033067580
  11     -0.000050359753
  12      0.000031286752
  13      0.000021636477
  14     -0.000065025011
  15     -0.000027910422
  16      0.000108553103
  17     -0.000052217662
  18     -0.000506093975
  19     -0.000951662291
  20     -0.001651755112
  21     -0.000302205821
  22     -0.000720539027
  23     -0.001007611345
  24     -0.000007039570
  25      0.000025159835
  26     -0.000003909783
  27      0.000022378173
  28      0.000017336204
  29     -0.000027822972
  30      0.000109217910
  31     -0.000052659161
  32     -0.000687777553
  33     -0.000788553585
  34     -0.000125516172
  35     -0.000549101147
  36     -0.000522633120
  37      0.000188122042
  38     -0.000007339379
  39      0.000012880107
  40     -0.000035337723
  41     -0.000027801345
  42     -0.000001948091
 Ene=  -0.17396424505108E+00
 Spin= Alpha
 Occup=    0.000000
   1      0.000038103158
   2     -0.000076331474
   3     -0.000189143426
   4      0.000246529447
   5      0.000007886518
   6     -0.001100295132
   7      0.000423258313
   8     -0.000053279658
   9     -0.000827152638
  10     -0.000012916936
  11      0.000006022647
  12      0.000008487107
  13      0.000094553007
  14      0.000013278475
  15      0.000011779237
  16      0.000011227843
  17     -0.000266069698
  18     -0.000470921992
  19      0.000490242922
  20      0.000938705338
  21     -0.000682448230
  22      0.000563122138
  23      0.000782632785
  24     -0.000025798038
  25      0.000007223560
  26      0.000003367260
  27      0.000044164731
  28     -0.000022858492
  29     -0.000033823958
  30      0.000071254014
  31      0.000194449844
  32     -0.000840491305
  33     -0.000089214771
  34      0.000938629620
  35     -0.001092973731
  36      0.000066205753
  37      0.000782518974
  38      0.000019978519
  39      0.000000788150
  40      0.000007946127
  41      0.000004572903
  42      0.000040929592
 Ene=  -0.17396424505107E+00
 Spin= Alpha
 Occup=    0.000000
   1     -0.000000323307
   2      0.000000652784
   3      0.000001587276
   4     -0.000001994620
   5     -0.000000070683
   6     -0.140247620817