[Molden Format]
[Title]
generated by TRESC, real part2 of MOs of job O3
 
[Atoms] AU
 O   1   8   -4.5402454961    7.2177128343   -2.7178598716
 O   2   8   -2.2158043353    7.0339313734   -2.7178598716
 O   3   8   -5.4895719187    9.3477159757   -2.7178598716
[GTO]
  1 0
 s  5 1.0
     2256.4894524000        0.0059167515
      338.4991392200        0.0411156308
       76.9063833050        0.1812996088
       21.4088621130        0.4670469627
        6.6523625585        0.4440133421
 s  1 1.0
        0.8121693602        1.0000000000
 s  1 1.0
        0.2558870496        1.0000000000
 p  3 1.0
       17.7535366450        0.0431495830
        3.8671566736        0.2292558699
        1.0487786113        0.5099918107
 p  1 1.0
        0.2765100171        1.0000000000
 d  1 1.0
        1.2000000000        1.0000000000
 
  2 0
 s  5 1.0
     2256.4894524000        0.0059167515
      338.4991392200        0.0411156308
       76.9063833050        0.1812996088
       21.4088621130        0.4670469627
        6.6523625585        0.4440133421
 s  1 1.0
        0.8121693602        1.0000000000
 s  1 1.0
        0.2558870496        1.0000000000
 p  3 1.0
       17.7535366450        0.0431495830
        3.8671566736        0.2292558699
        1.0487786113        0.5099918107
 p  1 1.0
        0.2765100171        1.0000000000
 d  1 1.0
        1.2000000000        1.0000000000
 
  3 0
 s  5 1.0
     2256.4894524000        0.0059167515
      338.4991392200        0.0411156308
       76.9063833050        0.1812996088
       21.4088621130        0.4670469627
        6.6523625585        0.4440133421
 s  1 1.0
        0.8121693602        1.0000000000
 s  1 1.0
        0.2558870496        1.0000000000
 p  3 1.0
       17.7535366450        0.0431495830
        3.8671566736        0.2292558699
        1.0487786113        0.5099918107
 p  1 1.0
        0.2765100171        1.0000000000
 d  1 1.0
        1.2000000000        1.0000000000
 
[5D]
[7F]
[9G]
[MO]
 Ene=   0.92643333190206E+00
 Spin= Alpha
 Occup=    0.000000
   1     -0.000004025429
   2      0.000029223467
   3     -0.000133204666
   4      0.000032147123
   5      0.000002438246
   6     -0.000017400547
   7     -0.000071727715
   8     -0.000048796472
   9      0.000053520368
  10      0.000001755569
  11     -0.002548425504
  12      0.001789823431
  13      0.000007057030
  14      0.000005005170
  15     -0.000003069542
  16      0.000017778079
  17      0.000044203105
  18     -0.000008558756
  19     -0.000057377733
  20     -0.253795820857
  21     -0.000015434469
  22      0.000067720736
  23      0.304341742144
  24     -0.000004008668
  25      0.007123969068
  26     -0.004641124481
  27      0.000004958654
  28     -0.000001714020
  29     -0.000007117852
  30      0.000027113994
  31      0.000024164458
  32     -0.000030053237
  33      0.000054001651
  34      0.253888263307
  35      0.000065368641
  36     -0.000092274743
  37     -0.304474194385
  38     -0.000000137720
  39      0.006750029189
  40     -0.005170783962
  41      0.000001572618
  42      0.000002326111
 Ene=   0.92643333190206E+00
 Spin= Alpha
 Occup=    0.000000
   1     -0.000364281929
   2      0.002644810365
   3     -0.012090715312
   4      0.002924492064
   5      0.000218442463
   6      0.000000378791
   7     -0.006518566432
   8     -0.004425640802
   9     -0.000000977549
  10      0.000160774340
  11      0.000028095803
  12     -0.000019724705
  13      0.000642253921
  14      0.000456172539
  15     -0.000277117760
  16      0.001607225497
  17      0.004021143748
  18     -0.000781141560
  19     -0.005220845578
  20      0.002797112615
  21     -0.001396156347
  22      0.006158501813
  23     -0.003354084769
  24     -0.000363772798
  25     -0.000078513368
  26      0.000051156892
  27      0.000450809503
  28     -0.000156203103
  29     -0.000646517200
  30      0.002462473844
  31      0.002189818594
  32     -0.002728812101
  33      0.004918472127
  34     -0.002798413410
  35      0.005934994453
  36     -0.008397264478
  37      0.003356076319
  38     -0.000012081981
  39     -0.000074398923
  40      0.000056999977
  41      0.000144266385
  42      0.000212001203
 Ene=   0.96607801983299E+00
 Spin= Alpha
 Occup=    0.000000
   1     -0.000023523789
   2      0.000397507794
   3      0.000495611099
   4      0.000595840859
   5      0.000830210453
   6     -0.047722044410
   7     -0.001125537431
   8     -0.001512731200
   9      0.095454211700
  10     -0.000201776717
  11     -0.001301372218
  12     -0.001853478702
  13      0.000035288199
  14     -0.000100162829
  15     -0.000102969760
  16      0.000692211033
  17     -0.000458033041
  18     -0.000667063354
  19     -0.000444834025
  20      0.034792506617
  21      0.001013426509
  22      0.001012181372
  23     -0.065326140235
  24     -0.000080450072
  25     -0.001695659397
  26     -0.000900564782
  27      0.000103429821
  28      0.000041205743
  29     -0.000100977323
  30      0.000684370029
  31     -0.000500034965
  32     -0.000221479273
  33     -0.000799772532
  34      0.034567030588
  35      0.000649055282
  36      0.001352448749
  37     -0.065053759132
  38     -0.000079582668
  39     -0.000280589869
  40     -0.001892297668
  41     -0.000107856490
  42     -0.000030573261
 Ene=   0.96607801983299E+00
 Spin= Alpha
 Occup=    0.000000
   1     -0.000314405210
   2      0.005311959092
   3      0.006621892243
   4      0.007962174631
   5      0.011092429388
   6      0.003610503071
   7     -0.015045559997
   8     -0.020208479440
   9     -0.007221761121
  10     -0.002696161078
  11      0.000098454953
  12      0.000140226518
  13      0.000471319383
  14     -0.001338476481
  15     -0.001376137778
  16      0.009250272918
  17     -0.006116726107
  18     -0.008911374442
  19     -0.005941063402
  20     -0.002632040861
  21      0.013536330834
  22      0.013520269123
  23      0.004942076929
  24     -0.001075019312
  25      0.000128282700
  26      0.000068132106
  27      0.001381987027
  28      0.000550395752
  29     -0.001348952680
  30      0.009143330152
  31     -0.006684626854
  32     -0.002961816106
  33     -0.010689842202
  34     -0.002615458794
  35      0.008675564493
  36      0.018078117098
  37      0.004922033452
  38     -0.001063348816
  39      0.000021227377
  40      0.000143167825
  41     -0.001441333123
  42     -0.000408357609
 Ene=   0.98486038404802E+00
 Spin= Alpha
 Occup=    0.000000
   1      0.000041651033
   2     -0.000841713594
   3     -0.000948606250
   4     -0.001337575767
   5     -0.001938185142
   6      0.008567703747
   7      0.002408791072
   8      0.003599815905
   9     -0.016869914060
  10      0.000452820773
  11      0.000204505353
  12      0.000346955275
  13     -0.000076851568
  14      0.000225962807
  15      0.000212564497
  16     -0.001457284035
  17      0.000976576737
  18      0.001484954358
  19      0.001161572185
  20     -0.007441009730
  21     -0.002245452486
  22     -0.002460668724
  23      0.012889058161
  24      0.000184031462
  25      0.000336173009
  26      0.000138524282
  27     -0.000233653013
  28     -0.000097721131
  29      0.000214711624
  30     -0.001467127285
  31      0.000875075142
  32      0.000555047473
  33      0.001770805645
  34     -0.005176172360
  35     -0.001502638494
  36     -0.002848341042
  37      0.010267213365
  38      0.000187479021
  39      0.000084360857
  40      0.000314401280
  41      0.000241777907
  42      0.000079550561
 Ene=   0.98486038404802E+00
 Spin= Alpha
 Occup=    0.000000
   1     -0.004292791969
   2      0.086752902495
   3      0.097768754363
   4      0.137861957942
   5      0.199764116215
   6      0.000083209977
   7     -0.248269441405
   8     -0.371024893982
   9     -0.000163872742
  10     -0.046670884935
  11      0.000001971186
  12      0.000003370366
  13      0.007920845638
  14     -0.023289226418
  15     -0.021908662359
  16      0.150199691339
  17     -0.100653482403
  18     -0.153049990223
  19     -0.119720609594
  20     -0.000072221951
  21      0.231432561649
  22      0.253615157034
  23      0.000125142748
  24     -0.018967557222
  25      0.000003264388
  26      0.000001342869
  27      0.024082134370
  28      0.010071720224
  29     -0.022129841307
  30      0.151213022498
  31     -0.090190723609
  32     -0.057207378696
  33     -0.182510859687
  34     -0.000050361280
  35      0.154873882481
  36      0.293568540981
  37      0.000099833323
  38     -0.019322886221
  39      0.000000818529
  40      0.000003051733
  41     -0.024919355916
  42     -0.008198671416
 Ene=   0.10586949756597E+01
 Spin= Alpha
 Occup=    0.000000
   1     -0.000001544080
   2      0.000001312306
   3     -0.000047030886
   4     -0.002306547774
   5      0.001587963272
   6     -0.002477038459
   7      0.008935547707
   8     -0.006255259121
   9      0.004420758642
  10      0.000007336455
  11     -0.000083999740
  12     -0.000085102395
  13     -0.000393614659
  14     -0.000134972887
  15     -0.000071033898
  16      0.000391143059
  17     -0.005850893800
  18      0.000385173521
  19     -0.002109530228
  20      0.000738703041
  21      0.002623486011
  22      0.004063107529
  23     -0.001910101337
  24      0.000195153220
  25     -0.000039291273
  26     -0.000069818325
  27     -0.000270096361
  28      0.000388164785
  29      0.000075193591
  30     -0.000425781495
  31      0.005894991342
  32      0.002124112409
  33      0.000398512698
  34      0.002509613265
  35     -0.002977409414
  36     -0.003929003763
  37     -0.003856480774
  38     -0.000190021278
  39      0.000003409875
  40     -0.000103488051
  41      0.000041378793
  42     -0.000469483277
 Ene=   0.10586949756597E+01
 Spin= Alpha
 Occup=    0.000000
   1     -0.000139107583
   2      0.000118677880
   3     -0.004235566364
   4     -0.207788491585
   5      0.143054042582
   6      0.000027457751
   7      0.804981090824
   8     -0.563519524897
   9     -0.000049034922
  10      0.000660538733
  11      0.000000922160
  12      0.000000942627
  13     -0.035458843098
  14     -0.012159160679
  15     -0.006399662216
  16      0.035240436200
  17     -0.527097997510
  18      0.034695497133
  19     -0.190040158106
  20     -0.000008153955
  21      0.236350761694
  22      0.366031415156
  23      0.000021143731
  24      0.017580228158
  25      0.000000433365
  26      0.000000774485
  27     -0.024331735529
  28      0.034968412507
  29      0.006774869391
  30     -0.038363442742
  31      0.531072076560
  32      0.191358074862
  33      0.035902225982
  34     -0.000027932217
  35     -0.268226906784
  36     -0.353957323776
  37      0.000042881274
  38     -0.017118006131
  39     -0.000000041048
  40      0.000001146824
  41      0.003727717137
  42     -0.042293589002
 Ene=   0.11872905369988E+01
 Spin= Alpha
 Occup=    0.000000
   1     -0.007985308575
   2      0.061323460853
   3     -0.193420411479
   4      0.005216225838
   5      0.007341770814
   6      0.000245129459
   7     -0.038631466319
   8     -0.054011644294
   9     -0.000215173228
  10     -0.002384798999
  11     -0.000012137538
  12      0.000026185162
  13      0.000036984826
  14     -0.000161389928
  15      0.003299796180
  16     -0.024447505379
  17      0.096144040280
  18      0.001415126307
  19      0.005761181189
  20      0.000041224387
  21     -0.051608154108
  22      0.006788069864
  23      0.000042081030
  24     -0.002470557719
  25     -0.000005968962
  26     -0.000007906099
  27      0.001351854287
  28      0.000745280510
  29      0.003244463626
  30     -0.024073722008
  31      0.095223795652
  32      0.005056552020
  33      0.003217929942
  34      0.000294376177
  35      0.023356317799
  36     -0.045928672456
  37     -0.000232505536
  38     -0.002489016496
  39      0.000006891877
  40     -0.000025702997
  41     -0.001517086685
  42     -0.000282765670
 Ene=   0.11872905369988E+01
 Spin= Alpha
 Occup=    0.000000
   1     -0.166291903281
   2      1.277044566022
   3     -4.027927798812
   4      0.108626388264
   5      0.152890367427
   6     -0.000011755546
   7     -0.804490107782
   8     -1.124777600526
   9      0.000010278495
  10     -0.049662777058
  11      0.000000585195
  12     -0.000001240064
  13      0.000770149700
  14     -0.003360953259
  15      0.068717431979
  16     -0.509113162385
  17      2.002174483834
  18      0.029469607700
  19      0.119974919237
  20     -0.000001975856
  21     -1.074726236618
  22      0.141359967719
  23     -0.000002012126
  24     -0.051448663169
  25      0.000000288297
  26      0.000000387842
  27      0.028151984923
  28      0.015520303200
  29      0.067565017837
  30     -0.501328362691
  31      1.983009035988
  32      0.105301703234
  33      0.067012477936
  34     -0.000014228092
  35      0.486388428223
  36     -0.956451827900
  37      0.000011258511
  38     -0.051833109321
  39     -0.000000331273
  40      0.000001188437
  41     -0.031592936470
  42     -0.005888546709
 Ene=   0.12073548545063E+01
 Spin= Alpha
 Occup=    0.000000
   1     -0.001294282064
   2      0.009961312994
   3     -0.032447081939
   4     -0.036505231317
   5      0.028099163303
   6      0.000002258316
   7      0.342486008257
   8     -0.255819041830
   9     -0.000000495211
  10     -0.000320545028
  11      0.000000108620
  12      0.000000227708
  13      0.018126605394
  14      0.006552315611
  15     -0.026822331819
  16      0.182968375485
  17     -0.462749783643
  18     -0.044210098247
  19      0.040839017205
  20      0.000003536923
  21      0.271088412994
  22     -0.043122489937
  23     -0.000003097358
  24     -0.008988854008
  25     -0.000000169822
  26     -0.000000035603
  27      0.000869927956
  28     -0.004115064617
  29      0.027869956062
  30     -0.190909320882
  31      0.494758123075
  32     -0.050935721261
  33      0.030412648228
  34      0.000004379985
  35      0.138486291733
  36     -0.257922420067
  37     -0.000003962691
  38      0.008163358083
  39      0.000000035149
  40     -0.000000291256
  41     -0.002351172366
  42      0.003593426450
 Ene=   0.12073548545063E+01
 Spin= Alpha
 Occup=    0.000000
   1      0.000009719930
   2     -0.000074806121
   3      0.000243663320
   4      0.000273942643
   5     -0.000210878603
   6      0.000298057073
   7     -0.002570219830
   8      0.001919897549
   9     -0.000060455775
  10      0.000002403178
  11      0.000016498013
  12      0.000030235715
  13     -0.000136039011
  14     -0.000049175618
  15      0.000201296273
  16     -0.001373139833
  17      0.003472770158
  18      0.000331785735
  19     -0.000306508909
  20      0.000472815054
  21     -0.002034421137
  22      0.000323646392
  23     -0.000415926535
  24      0.000067463463
  25     -0.000023518745
  26     -0.000004846639
  27     -0.000006532743
  28      0.000030886116
  29     -0.000209160317
  30      0.001432756861
  31     -0.003713126624
  32      0.000382292975
  33     -0.000228241313
  34      0.000587610957
  35     -0.001039374626
  36      0.001935684656
  37     -0.000533376506
  38     -0.000061265975
  39      0.000004600613
  40     -0.000038481845
  41      0.000017647568
  42     -0.000026974175
 Ene=   0.19619563638880E+01
 Spin= Alpha
 Occup=    0.000000
   1      0.000003500626
   2     -0.000103445296
   3      0.000417249925
   4      0.000010296198
   5      0.000014550924
   6     -0.000003964363
   7      0.000121582738
   8      0.000130163148
   9      0.000000966653
  10     -0.000009254966
  11      0.035214550715
  12     -0.024886024399
  13      0.000051482430
  14     -0.000127506512
  15      0.000005385062
  16      0.000005534953
  17     -0.000214152743
  18      0.000085687243
  19     -0.000022174789
  20     -0.003526324596
  21      0.000088977176
  22     -0.000001594192
  23     -0.005050486858
  24      0.000077481045
  25     -0.028495338688
  26     -0.001776624307
  27      0.000004141846
  28      0.000070932149
  29      0.000005091763
  30      0.000002406072
  31     -0.000178909451
  32     -0.000051771937
  33      0.000061101835
  34      0.003521059934
  35     -0.000024563441
  36      0.000069413588
  37      0.005053028086
  38      0.000066117712
  39     -0.007834974875
  40      0.027448855782
  41     -0.000057380159
  42      0.000062490770
 Ene=   0.19619563638880E+01
 Spin= Alpha
 Occup=    0.000000
   1     -0.000000260537
   2      0.000007259993
   3     -0.000029063499
   4     -0.000000746431
   5     -0.000000986063
   6     -0.000057484642
   7     -0.000008375969
   8     -0.000009071485
   9      0.000014066415
  10      0.000000641707
  11      0.508406285776
  12     -0.359287242854
  13     -0.000003500123
  14      0.000008698333
  15     -0.000000410534
  16     -0.000000202242
  17      0.000014679937
  18     -0.000005915368
  19      0.000001530622
  20     -0.050910934847
  21     -0.000006162277
  22      0.000000132064
  23     -0.072915835401
  24     -0.000005449461
  25     -0.411398011849
  26     -0.025650131792
  27     -0.000000207053
  28     -0.000004804027
  29     -0.000000337087
  30     -0.000000253311
  31      0.000012557216
  32      0.000003585956
  33     -0.000004164713
  34      0.050834557045
  35      0.000001760566
  36     -0.000004905105
  37      0.072952461416
  38     -0.000004553794
  39     -0.113116705267
  40      0.396288449942
  41      0.000003903624
  42     -0.000004323011
 Ene=   0.20504401403471E+01
 Spin= Alpha
 Occup=    0.000000
   1      0.001226841702
   2     -0.010419059624
   3      0.024352001582
   4      0.001095900185
   5      0.001699398980
   6     -0.000000008690
   7      0.006805111695
   8      0.009616004973
   9     -0.000000011772
  10      0.014568541409
  11      0.000000094789
  12      0.000000034626
  13      0.009980155548
  14     -0.028377087651
  15      0.000756312838
  16     -0.002441733496
  17     -0.008969472490
  18      0.004357822224
  19      0.001622428102
  20     -0.000000007120
  21      0.003650606414
  22      0.000960520446
  23     -0.000000008246
  24      0.004403426225
  25     -0.000000081301
  26      0.000000009354
  27      0.006723238135
  28      0.018283965862
  29      0.000768354074
  30     -0.002476491787
  31     -0.008965759139
  32     -0.000112193270
  33      0.004705496649
  34     -0.000000002241
  35     -0.000197242320
  36      0.003776793382
  37      0.000000008835
  38      0.004325803580
  39      0.000000025416
  40     -0.000000007154
  41     -0.016683415859
  42      0.010163499617
 Ene=   0.20504401403471E+01
 Spin= Alpha
 Occup=    0.000000
   1      0.000000089318
   2     -0.000000756904
   3      0.000001757425
   4      0.000000080596
   5      0.000000122777
   6      0.000039167244
   7      0.000000493396
   8      0.000000695300
   9      0.000040083113
  10      0.000001056311
  11     -0.000408137479
  12     -0.000388693011
  13      0.000000727265
  14     -0.000002060384
  15      0.000000055809
  16     -0.000000181747
  17     -0.000000643952
  18      0.000000322504
  19      0.000000117379
  20     -0.000028449037
  21      0.000000257389
  22      0.000000070433
  23      0.000080119868
  24      0.000000322233
  25      0.000314674886
  26     -0.000062412464
  27      0.000000494272
  28      0.000001328653
  29      0.000000055701
  30     -0.000000180559
  31     -0.000000645307
  32     -0.000000006881
  33      0.000000341290
  34      0.000020647518
  35     -0.000000013724
  36      0.000000270580
  37     -0.000001127170
  38      0.000000309072
  39     -0.000260208985
  40      0.000112969996
  41     -0.000001212175
  42      0.000000738815
 Ene=   0.21388649450324E+01
 Spin= Alpha
 Occup=    0.000000
   1     -0.000025506497
   2      0.000225558127
   3     -0.000552716632
   4     -0.000075131087
   5     -0.000012670424
   6     -0.012175484125
   7     -0.000115985973
   8     -0.000226334276
   9     -0.008284359115
  10     -0.000169836259
  11      0.067213937111
  12      0.095144043444
  13     -0.000196413701
  14      0.000456638346
  15     -0.000017251522
  16      0.000042849548
  17      0.000213683221
  18     -0.000128323603
  19     -0.000034184598
  20     -0.005983407237
  21     -0.000083523922
  22      0.000021558156
  23     -0.003256646526
  24     -0.000133095899
  25     -0.054906709487
  26      0.034964218841
  27     -0.000147572085
  28     -0.000352070633
  29     -0.000014822838
  30      0.000052546178
  31      0.000203640238
  32     -0.000012213227
  33     -0.000086114711
  34     -0.005979336697
  35      0.000023633387
  36     -0.000085042223
  37     -0.003266540942
  38      0.000013177047
  39      0.051250566049
  40     -0.040155676449
  41      0.000240312835
  42     -0.000176603174
 Ene=   0.21388649450324E+01
 Spin= Alpha
 Occup=    0.000000
   1      0.000006995019
   2     -0.000061838182
   3      0.000151526679
   4      0.000020582748
   5      0.000003479268
   6     -0.044442777717
   7      0.000031826979
   8      0.000061999568
   9     -0.030239434859
  10      0.000046539171
  11      0.245343357349
  12      0.347293487923
  13      0.000053822120
  14     -0.000125120646
  15      0.000004706882
  16     -0.000011637952
  17     -0.000058693216
  18      0.000035163037
  19      0.000009371950
  20     -0.021840551709
  21      0.000022931609
  22     -0.000005915470
  23     -0.011887366481
  24      0.000036462072
  25     -0.200419646807
  26      0.127625933767
  27      0.000040439958
  28      0.000096472536
  29      0.000004065028
  30     -0.000014418858
  31     -0.000055768850
  32      0.000003334765
  33      0.000023597865
  34     -0.021825673104
  35     -0.000006460540
  36      0.000023291748
  37     -0.011923512912
  38     -0.000003595145
  39      0.187074101347
  40     -0.146575694505
  41     -0.000065851840
  42      0.000048382690
 Ene=   0.25022460299415E+01
 Spin= Alpha
 Occup=    0.000000
   1     -0.001507916220
   2      0.010645063881
   3     -0.022309150064
   4     -0.214480852612
   5      0.155260969927
   6     -0.000000043936
   7      0.731128835466
   8     -0.530077211752
   9      0.000000026756
  10      0.007272045546
  11      0.000000004329
  12      0.000000011920
  13      0.417754840904
  14      0.151632640461
  15      0.036338466546
  16     -0.155554612244
  17     -0.359792790000
  18      0.182154439404
  19     -0.069432028461
  20      0.000000018239
  21      0.133235988058
  22      0.141521024162
  23     -0.000000005829
  24      0.271837931978
  25     -0.000000046508
  26      0.000000283054
  27      0.332901676071
  28     -0.393469475565
  29     -0.037147779055
  30      0.157892542117
  31      0.376835684128
  32      0.127713563757
  33     -0.153752287308
  34      0.000000040081
  35     -0.082309469886
  36     -0.178246675429
  37     -0.000000035748
  38     -0.251849443515
  39     -0.000000357346
  40     -0.000000154188
  41      0.012008123528
  42      0.511421123228
 Ene=   0.25022460299415E+01
 Spin= Alpha
 Occup=    0.000000
   1     -0.000000580507
   2      0.000004095300
   3     -0.000008582485
   4     -0.000084818576
   5      0.000061364125
   6      0.000105168360
   7      0.000289144665
   8     -0.000209493552
   9     -0.000035603405
  10      0.000002802029
  11     -0.000044391897
  12     -0.000003757404
  13      0.000165193327
  14      0.000059914770
  15      0.000014372231
  16     -0.000061517089
  17     -0.000142349361
  18      0.000072058943
  19     -0.000027449789
  20     -0.000049656572
  21      0.000052714508
  22      0.000055931930
  23      0.000017446187
  24      0.000107381929
  25      0.000219364672
  26     -0.000620822309
  27      0.000131620497
  28     -0.000155545848
  29     -0.000014683918
  30      0.000062417661
  31      0.000148904773
  32      0.000050490636
  33     -0.000060764791
  34     -0.000080205036
  35     -0.000032578358
  36     -0.000070447996
  37      0.000061225481
  38     -0.000099686052
  39      0.000900357434
  40      0.000397422600
  41      0.000004751191
  42      0.000202227095
 Ene=   0.25084388238082E+01
 Spin= Alpha
 Occup=    0.000000
   1     -0.000065531347
   2      0.000465286320
   3     -0.000985660321
   4      0.000078857517
   5      0.000103990073
   6      0.000049428619
   7     -0.000289698744
   8     -0.000383562856
   9      0.000132297412
  10      0.000310703587
  11      0.000038087189
  12     -0.000164669279
  13     -0.000058007069
  14      0.000141880433
  15     -0.000018034991
  16      0.000053170078
  17      0.000384358725
  18     -0.000120130807
  19     -0.000005992932
  20     -0.000007847150
  21     -0.000165076974
  22      0.000093965000
  23     -0.000094395853
  24      0.000439554524
  25      0.000476443531
  26     -0.000272854800
  27      0.000037380441
  28     -0.000076272879
  29     -0.000016837283
  30      0.000048086285
  31      0.000371644771
  32      0.000030230239
  33     -0.000110288450
  34      0.000033974906
  35      0.000146451808
  36     -0.000118144672
  37     -0.000039132850
  38      0.000448762340
  39      0.001450364131
  40      0.000753626836
  41      0.000018506865
  42     -0.000099977939
 Ene=   0.25084388238082E+01
 Spin= Alpha
 Occup=    0.000000
   1      0.077062538690
   2     -0.547160962285
   3      1.159101898127
   4     -0.092779769514
   5     -0.122252552348
   6      0.000000041890
   7      0.340850684133
   8      0.450926005952
   9      0.000000190435
  10     -0.365380082244
  11     -0.000000018210
  12     -0.000000121917
  13      0.068310759003
  14     -0.166817180994
  15      0.021216389558
  16     -0.062557970063
  17     -0.452088844935
  18      0.141308236794
  19      0.007032210017
  20      0.000000017645
  21      0.194166964527
  22     -0.110466172117
  23     -0.000000121658
  24     -0.516830594444
  25      0.000000572541
  26     -0.000000018802
  27     -0.043883075351
  28      0.089602788949
  29      0.019792663510
  30     -0.056517911382
  31     -0.436941992524
  32     -0.035522639416
  33      0.129663782312
  34      0.000000048146
  35     -0.172235629649
  36      0.138883845829
  37     -0.000000083852
  38     -0.527774904093
  39      0.000001458433
  40      0.000000833920
  41     -0.021768131776
  42      0.117675970234
 Ene=   0.25540122056033E+01
 Spin= Alpha
 Occup=    0.000000
   1     -0.000005179491
   2      0.000036579677
   3     -0.000074501810
   4      0.000041474415
   5     -0.000015898395
   6      0.000006468769
   7     -0.000135272066
   8      0.000049533526
   9     -0.000385044298
  10      0.000029923824
  11      0.005134396069
  12     -0.003448270935
  13     -0.000073604290
  14     -0.000018287570
  15     -0.000009180388
  16      0.000042123628
  17      0.000067638030
  18     -0.000044999452
  19      0.000016251251
  20      0.012912104402
  21     -0.000019887016
  22     -0.000023827558
  23     -0.018674803336
  24      0.000052727519
  25      0.025755114948
  26     -0.422610113517
  27     -0.000014552952
  28      0.000067501999
  29      0.000006128356
  30     -0.000032138018
  31     -0.000011953084
  32     -0.000023588504
  33      0.000018253359
  34     -0.013080950725
  35      0.000037971590
  36      0.000010814193
  37      0.019095361764
  38      0.000006698681
  39      0.404660354453
  40      0.114448049703
  41      0.000038361628
  42     -0.000069182662
 Ene=   0.25540122056033E+01
 Spin= Alpha
 Occup=    0.000000
   1     -0.000080965324
   2      0.000571961911
   3     -0.001165146419
   4      0.000648333419
   5     -0.000248350569
   6     -0.000000411904
   7     -0.002114608323
   8      0.000773762396
   9      0.000024667810
  10      0.000468244658
  11     -0.000328090818
  12      0.000220310115
  13     -0.001150364166
  14     -0.000285715278
  15     -0.000143498829
  16      0.000658326836
  17      0.001057746165
  18     -0.000703426185
  19      0.000253839999
  20     -0.000825037241
  21     -0.000311149799
  22     -0.000372037741
  23      0.001193236903
  24      0.000823380520
  25     -0.001645565092
  26      0.027003989190
  27     -0.000228166422
  28      0.001054737006
  29      0.000095684582
  30     -0.000501812366
  31     -0.000186959861
  32     -0.000368447912
  33      0.000285057884
  34      0.000835854868
  35      0.000593378001
  36      0.000169130682
  37     -0.001220181465
  38      0.000106593843
  39     -0.025856543347
  40     -0.007312720574
  41      0.000598786488
  42     -0.001081832061
 Ene=   0.25732511287134E+01
 Spin= Alpha
 Occup=    0.000000
   1     -0.000086506684
   2      0.000592267872
   3     -0.001092308522
   4     -0.000143388512
   5      0.000315690719
   6      0.000583280982
   7      0.000717724995
   8     -0.001180953238
   9      0.022380423058
  10      0.000484760437
  11     -0.010574143804
  12     -0.014938618152
  13      0.000468247611
  14      0.000392097889
  15      0.000042459869
  16     -0.000254054846
  17      0.000068252838
  18      0.000142148325
  19     -0.000223017671
  20      0.005636332907
  21     -0.000074853389
  22      0.000510886897
  23     -0.012239968727
  24     -0.000407075504
  25      0.045907286319
  26      0.105458390416
  27     -0.000475011848
  28     -0.000883930402
  29     -0.000101756981
  30      0.000474545004
  31      0.000687866795
  32      0.000355111399
  33     -0.000402324954
  34      0.005612949552
  35     -0.000215163847
  36     -0.000278927189
  37     -0.012212304470
  38      0.001232197752
  39      0.084773901203
  40      0.078695371839
  41     -0.000722100348
  42      0.000387264194
 Ene=   0.25732511287134E+01
 Spin= Alpha
 Occup=    0.000000
   1     -0.000020355683
   2      0.000139362382
   3     -0.000256935832
   4     -0.000033692971
   5      0.000074282979
   6     -0.002481509760