 Entering Link 1 = D:\Gaussian16W\G16W\l1.exe PID=     20700.
  
 Copyright (c) 1988,1990,1992,1993,1995,1998,2003,2009,2016,
            Gaussian, Inc.  All Rights Reserved.
  
 This is part of the Gaussian(R) 16 program.  It is based on
 the Gaussian(R) 09 system (copyright 2009, Gaussian, Inc.),
 the Gaussian(R) 03 system (copyright 2003, Gaussian, Inc.),
 the Gaussian(R) 98 system (copyright 1998, Gaussian, Inc.),
 the Gaussian(R) 94 system (copyright 1995, Gaussian, Inc.),
 the Gaussian 92(TM) system (copyright 1992, Gaussian, Inc.),
 the Gaussian 90(TM) system (copyright 1990, Gaussian, Inc.),
 the Gaussian 88(TM) system (copyright 1988, Gaussian, Inc.),
 the Gaussian 86(TM) system (copyright 1986, Carnegie Mellon
 University), and the Gaussian 82(TM) system (copyright 1983,
 Carnegie Mellon University). Gaussian is a federally registered
 trademark of Gaussian, Inc.
  
 This software contains proprietary and confidential information,
 including trade secrets, belonging to Gaussian, Inc.
  
 This software is provided under written license and may be
 used, copied, transmitted, or stored only in accord with that
 written license.
  
 The following legend is applicable only to US Government
 contracts under FAR:
  
                    RESTRICTED RIGHTS LEGEND
  
 Use, reproduction and disclosure by the US Government is
 subject to restrictions as set forth in subparagraphs (a)
 and (c) of the Commercial Computer Software - Restricted
 Rights clause in FAR 52.227-19.
  
 Gaussian, Inc.
 340 Quinnipiac St., Bldg. 40, Wallingford CT 06492
  
  
 ---------------------------------------------------------------
 Warning -- This program may not be used in any manner that
 competes with the business of Gaussian, Inc. or will provide
 assistance to any competitor of Gaussian, Inc.  The licensee
 of this program is prohibited from giving any competitor of
 Gaussian, Inc. access to this program.  By using this program,
 the user acknowledges that Gaussian, Inc. is engaged in the
 business of creating and licensing software in the field of
 computational chemistry and represents and warrants to the
 licensee that it is not a competitor of Gaussian, Inc. and that
 it will not use this program in any manner prohibited above.
 ---------------------------------------------------------------
  

 Cite this work as:
 Gaussian 16, Revision A.03,
 M. J. Frisch, G. W. Trucks, H. B. Schlegel, G. E. Scuseria, 
 M. A. Robb, J. R. Cheeseman, G. Scalmani, V. Barone, 
 G. A. Petersson, H. Nakatsuji, X. Li, M. Caricato, A. V. Marenich, 
 J. Bloino, B. G. Janesko, R. Gomperts, B. Mennucci, H. P. Hratchian, 
 J. V. Ortiz, A. F. Izmaylov, J. L. Sonnenberg, D. Williams-Young, 
 F. Ding, F. Lipparini, F. Egidi, J. Goings, B. Peng, A. Petrone, 
 T. Henderson, D. Ranasinghe, V. G. Zakrzewski, J. Gao, N. Rega, 
 G. Zheng, W. Liang, M. Hada, M. Ehara, K. Toyota, R. Fukuda, 
 J. Hasegawa, M. Ishida, T. Nakajima, Y. Honda, O. Kitao, H. Nakai, 
 T. Vreven, K. Throssell, J. A. Montgomery, Jr., J. E. Peralta, 
 F. Ogliaro, M. J. Bearpark, J. J. Heyd, E. N. Brothers, K. N. Kudin, 
 V. N. Staroverov, T. A. Keith, R. Kobayashi, J. Normand, 
 K. Raghavachari, A. P. Rendell, J. C. Burant, S. S. Iyengar, 
 J. Tomasi, M. Cossi, J. M. Millam, M. Klene, C. Adamo, R. Cammi, 
 J. W. Ochterski, R. L. Martin, K. Morokuma, O. Farkas, 
 J. B. Foresman, and D. J. Fox, Gaussian, Inc., Wallingford CT, 2016.
 
 ******************************************
 Gaussian 16:  EM64W-G16RevA.03 17-Dec-2016
                02-Feb-2025 
 ******************************************
 %chk=E:\TRESC\examples\SCN\Gaussian\Scratch\SCN.chk
 %mem=1500MB
 %nprocshared=4
 Will use up to    4 processors via shared memory.
 --------------------------------------------------------
 # uhf/gen nosymm int=nobasistransform iop(3/32=2,3/27=9)
 --------------------------------------------------------
 1/38=1,172=1/1;
 2/12=2,15=1,17=6,18=5,40=1/2;
 3/5=7,11=2,25=1,27=9,30=1,32=2,60=-1,116=2/1,2,3;
 4//1;
 5/5=2,38=5/2;
 6/7=2,8=2,9=2,10=2,28=1/1;
 99/5=1,9=1/99;
 ---
 SCN
 ---
 Symbolic Z-matrix:
 Charge =  0 Multiplicity = 2
 S                     0.        0.        1.01848 
 C                     0.        0.       -0.6164 
 N                     0.        0.       -1.79962 
 
                          Input orientation:                          
 ---------------------------------------------------------------------
 Center     Atomic      Atomic             Coordinates (Angstroms)
 Number     Number       Type             X           Y           Z
 ---------------------------------------------------------------------
      1         16           0        0.000000    0.000000    1.018484
      2          6           0        0.000000    0.000000   -0.616396
      3          7           0        0.000000    0.000000   -1.799624
 ---------------------------------------------------------------------
                    Distance matrix (angstroms):
                    1          2          3
     1  S    0.000000
     2  C    1.634880   0.000000
     3  N    2.818108   1.183228   0.000000
 Symmetry turned off by external request.
 Stoichiometry    CNS(2)
 Framework group  C*V[C*(NCS)]
 Deg. of freedom     2
 Full point group                 C*V     NOp   4
 Rotational constants (GHZ):           0.0000000           6.0833880           6.0833880
 General basis read from cards:  (5D, 7F)
    48 basis functions,    87 primitive gaussians,    51 cartesian basis functions
    15 alpha electrons       14 beta electrons
       nuclear repulsion energy        70.8880499672 Hartrees.
 NAtoms=    3 NActive=    3 NUniq=    3 SFac= 1.00D+00 NAtFMM=   60 NAOKFM=F Big=F
 Integral buffers will be    131072 words long.
 Raffenetti 2 integral format.
 Two-electron integral symmetry is turned off.
 One-electron integrals computed using PRISM.
 NBasis=    48 RedAO= F EigKep=  0.00D+00  NBF=    48
 NBsUse=    48 1.00D-04 EigRej=  0.00D+00 NBFU=    48
 GSVD:  LWork=       -2391 too small for GESVD, short by       11943 words or       11943 for optimal perf.
 ExpMin= 1.31D-01 ExpMax= 9.18D+03 ExpMxC= 1.38D+03 IAcc=3 IRadAn=         5 AccDes= 0.00D+00
 Harris functional with IExCor=  205 and IRadAn=       5 diagonalized for initial guess.
 HarFok:  IExCor=  205 AccDes= 0.00D+00 IRadAn=         5 IDoV= 1 UseB2=F ITyADJ=14
 ICtDFT=  3500011 ScaDFX=  1.000000  1.000000  1.000000  1.000000
 FoFCou: FMM=F IPFlag=           0 FMFlag=      100000 FMFlg1=           0
         NFxFlg=           0 DoJE=T BraDBF=F KetDBF=T FulRan=T
         wScrn=  0.000000 ICntrl=       500 IOpCl=  0 I1Cent=   200000004 NGrid=           0
         NMat0=    1 NMatS0=      1 NMatT0=    0 NMatD0=    1 NMtDS0=    0 NMtDT0=    0
 Symmetry not used in FoFCou.
 Initial guess <Sx>= 0.0000 <Sy>= 0.0000 <Sz>= 0.5000 <S**2>= 0.7500 S= 0.5000
 Keep R1 and R2 ints in memory in canonical form, NReq=2221294.
 Requested convergence on RMS density matrix=1.00D-08 within 128 cycles.
 Requested convergence on MAX density matrix=1.00D-06.
 Requested convergence on             energy=1.00D-06.
 No special actions if energy rises.
 GSVD:  LWork=       -2688 too small for GESVD, short by       12240 words or       12240 for optimal perf.
 SCF Done:  E(UHF) =  -489.502784695     A.U. after   20 cycles
            NFock= 20  Conv=0.37D-08     -V/T= 1.9969
 <Sx>= 0.0000 <Sy>= 0.0000 <Sz>= 0.5000 <S**2>= 0.9487 S= 0.5948
 <L.S>= 0.000000000000E+00
 Annihilation of the first spin contaminant:
 S**2 before annihilation     0.9487,   after     0.7697

 **********************************************************************

            Population analysis using the SCF density.

 **********************************************************************

 Alpha  occ. eigenvalues --  -91.97163 -15.61838 -11.31462  -9.03508  -6.74593
 Alpha  occ. eigenvalues --   -6.73218  -6.72708  -1.25812  -1.08468  -0.67250
 Alpha  occ. eigenvalues --   -0.59868  -0.58370  -0.55969  -0.47910  -0.42669
 Alpha virt. eigenvalues --    0.16549   0.17751   0.22392   0.29404   0.53371
 Alpha virt. eigenvalues --    0.70013   0.70157   0.78715   0.80007   0.81683
 Alpha virt. eigenvalues --    0.81808   0.83575   0.83875   0.93271   0.94329
 Alpha virt. eigenvalues --    0.96836   1.07954   1.10034   1.17846   1.25098
 Alpha virt. eigenvalues --    1.53284   1.87396   1.87402   1.97203   1.98356
 Alpha virt. eigenvalues --    2.51980   2.51982   3.03692   3.15562   3.16980
 Alpha virt. eigenvalues --    3.66465   6.99831 224.78693
  Beta  occ. eigenvalues --  -91.96344 -15.59266 -11.33243  -9.02621  -6.72654
  Beta  occ. eigenvalues --   -6.72342  -6.71056  -1.21470  -1.02251  -0.65212
  Beta  occ. eigenvalues --   -0.56207  -0.55350  -0.51109  -0.38775
  Beta virt. eigenvalues --   -0.03193   0.18397   0.22786   0.23448   0.29954
  Beta virt. eigenvalues --    0.54769   0.66015   0.67209   0.79147   0.84540
  Beta virt. eigenvalues --    0.85148   0.87417   0.88976   0.89130   0.94163
  Beta virt. eigenvalues --    0.98163   1.00947   1.12641   1.14734   1.18842
  Beta virt. eigenvalues --    1.26591   1.54636   1.83640   1.83659   1.98213
  Beta virt. eigenvalues --    1.98528   2.58628   2.58637   3.04311   3.18218
  Beta virt. eigenvalues --    3.18306   3.67723   7.01238 224.79085
          Condensed to atoms (all electrons):
               1          2          3
     1  S   15.640825   0.260279  -0.023420
     2  C    0.260279   4.918017   0.817245
     3  N   -0.023420   0.817245   6.332952
          Atomic-Atomic Spin Densities.
               1          2          3
     1  S    0.984097  -0.051380  -0.006124
     2  C   -0.051380  -0.728226  -0.004972
     3  N   -0.006124  -0.004972   0.869081
 Mulliken charges and spin densities:
               1          2
     1  S    0.122316   0.926593
     2  C    0.004460  -0.784578
     3  N   -0.126776   0.857985
 Sum of Mulliken charges =   0.00000   1.00000
 Mulliken charges and spin densities with hydrogens summed into heavy atoms:
               1          2
     1  S    0.122316   0.926593
     2  C    0.004460  -0.784578
     3  N   -0.126776   0.857985
 Electronic spatial extent (au):  <R**2>=            204.0038
 Charge=              0.0000 electrons
 Dipole moment (field-independent basis, Debye):
    X=              0.0000    Y=              0.0000    Z=              2.5277  Tot=              2.5277
 Quadrupole moment (field-independent basis, Debye-Ang):
   XX=            -22.3280   YY=            -24.6584   ZZ=            -27.8463
   XY=             -0.1084   XZ=              0.0000   YZ=              0.0000
 Traceless Quadrupole moment (field-independent basis, Debye-Ang):
   XX=              2.6163   YY=              0.2858   ZZ=             -2.9020
   XY=             -0.1084   XZ=              0.0000   YZ=              0.0000
 Octapole moment (field-independent basis, Debye-Ang**2):
  XXX=              0.0000  YYY=              0.0000  ZZZ=             17.9745  XYY=              0.0000
  XXY=              0.0000  XXZ=              1.3706  XZZ=              0.0000  YZZ=              0.0000
  YYZ=             -0.2338  XYZ=             -0.0746
 Hexadecapole moment (field-independent basis, Debye-Ang**3):
 XXXX=            -23.3810 YYYY=            -27.7062 ZZZZ=           -247.9232 XXXY=             -0.1005
 XXXZ=              0.0000 YYYX=             -0.1007 YYYZ=              0.0000 ZZZX=              0.0000
 ZZZY=              0.0000 XXYY=             -8.5140 XXZZ=            -40.1485 YYZZ=            -44.6471
 XXYZ=              0.0000 YYXZ=              0.0000 ZZXY=             -0.2092
 N-N= 7.088804996719D+01 E-N=-1.305007640693D+03  KE= 4.910130260422D+02
                          Isotropic Fermi Contact Couplings
        Atom                 a.u.       MegaHertz       Gauss      10(-4) cm-1
     1  S(33)              0.13476      46.28631      16.51611      15.43945
     2  C(13)             -0.27820    -312.75211    -111.59773    -104.32287
     3  N(14)              0.28801      93.05584      33.20464      31.04009
 --------------------------------------------------------
       Center         ----  Spin Dipole Couplings  ----
                      3XX-RR        3YY-RR        3ZZ-RR
 --------------------------------------------------------
     1   Atom        3.533711     -1.919387     -1.614324
     2   Atom       -0.382727     -0.059762      0.442489
     3   Atom        0.976745     -0.132964     -0.843781
 --------------------------------------------------------
                        XY            XZ            YZ
 --------------------------------------------------------
     1   Atom       -0.253595      0.000000      0.000000
     2   Atom        0.015019      0.000000      0.000000
     3   Atom       -0.051607      0.000000      0.000000
 --------------------------------------------------------


 ---------------------------------------------------------------------------------
              Anisotropic Spin Dipole Couplings in Principal Axis System
 ---------------------------------------------------------------------------------

       Atom             a.u.   MegaHertz   Gauss  10(-4) cm-1        Axes

              Baa    -1.9312   -79.176   -28.252   -26.410  0.0464  0.9989  0.0000
     1 S(33)  Bbb    -1.6143   -66.186   -23.617   -22.077  0.0000  0.0000  1.0000
              Bcc     3.5455   145.361    51.869    48.487  0.9989 -0.0464  0.0000
 
              Baa    -0.3834   -51.452   -18.359   -17.162  0.9989 -0.0464  0.0000
     2 C(13)  Bbb    -0.0591    -7.926    -2.828    -2.644  0.0464  0.9989  0.0000
              Bcc     0.4425    59.378    21.187    19.806  0.0000  0.0000  1.0000
 
              Baa    -0.8438   -32.543   -11.612   -10.855  0.0000  0.0000  1.0000
     3 N(14)  Bbb    -0.1354    -5.221    -1.863    -1.741  0.0464  0.9989  0.0000
              Bcc     0.9791    37.763    13.475    12.596  0.9989 -0.0464  0.0000
 

 ---------------------------------------------------------------------------------


 Test job not archived.
 1|1|UNPC-BATCOMPUTER|SP|UHF|Gen|C1N1S1(2)|DELL|02-Feb-2025|0||# uhf/ge
 n nosymm int=nobasistransform iop(3/32=2,3/27=9)||SCN||0,2|S,0,0.,0.,1
 .018484|C,0,0.,0.,-0.616396|N,0,0.,0.,-1.799624||Version=EM64W-G16RevA
 .03|HF=-489.5027847|S2=0.948693|S2-1=0.|S2A=0.769698|RMSD=3.739e-009|D
 ipole=0.,0.,0.9944881|Quadrupole=1.9451185,0.2124735,-2.157592,-0.0805
 761,0.,0.|PG=C*V [C*(N1C1S1)]||@


 IN THE WOODS WE RETURN TO REASON AND FAITH.

                                 -- EMERSON
 Job cpu time:       0 days  0 hours  0 minutes  4.0 seconds.
 Elapsed time:       0 days  0 hours  0 minutes  2.8 seconds.
 File lengths (MBytes):  RWF=      6 Int=      0 D2E=      0 Chk=      1 Scr=      1
 Normal termination of Gaussian 16 at Sun Feb 02 09:27:12 2025.
