[Molden Format]
[Title]
generated by TRESC, imaginary part1 of MOs of job CO3
 
[Atoms] AU
 C   1   6    0.3364484192    5.8882927452    0.3891081484
 O   2   8    2.6974300312    5.9862747024    0.4085979628
 O   3   8   -0.7714112401    7.4618585764    1.8371371576
 O   4   8   -0.6184572465    4.2284969646   -1.0743142370
[GTO]
  1 0
 s  5 1.0
     1238.4016938000        0.0059599745
      186.2900499200        0.0422621111
       42.2511763500        0.1866575214
       11.6765579300        0.4675815865
        3.5930506500        0.4422897287
 s  1 1.0
        0.4024514700        1.0000000000
 s  1 1.0
        0.1309018300        1.0000000000
 p  3 1.0
        9.4680970600        0.0570294585
        2.0103545100        0.3130471495
        0.5477100500        0.7605135301
 p  1 1.0
        0.1526861400        1.0000000000
 d  1 1.0
        0.8000000000        1.0000000000
 
  2 0
 s  5 1.0
     2266.1767785000        0.0060711540
      340.8701019100        0.0417308970
       77.3631351700        0.1850777598
       21.4796449400        0.4668774046
        6.6589433100        0.4435718061
 s  1 1.0
        0.8097597600        1.0000000000
 s  1 1.0
        0.2553077200        1.0000000000
 p  3 1.0
       17.7215043200        0.0628680198
        3.8635505400        0.3334973703
        1.0480920900        0.7412421661
 p  1 1.0
        0.2764154400        1.0000000000
 d  1 1.0
        1.2000000000        1.0000000000
 
  3 0
 s  5 1.0
     2266.1767785000        0.0060711540
      340.8701019100        0.0417308970
       77.3631351700        0.1850777598
       21.4796449400        0.4668774046
        6.6589433100        0.4435718061
 s  1 1.0
        0.8097597600        1.0000000000
 s  1 1.0
        0.2553077200        1.0000000000
 p  3 1.0
       17.7215043200        0.0628680198
        3.8635505400        0.3334973703
        1.0480920900        0.7412421661
 p  1 1.0
        0.2764154400        1.0000000000
 d  1 1.0
        1.2000000000        1.0000000000
 
  4 0
 s  5 1.0
     2266.1767785000        0.0060711540
      340.8701019100        0.0417308970
       77.3631351700        0.1850777598
       21.4796449400        0.4668774046
        6.6589433100        0.4435718061
 s  1 1.0
        0.8097597600        1.0000000000
 s  1 1.0
        0.2553077200        1.0000000000
 p  3 1.0
       17.7215043200        0.0628680198
        3.8635505400        0.3334973703
        1.0480920900        0.7412421661
 p  1 1.0
        0.2764154400        1.0000000000
 d  1 1.0
        1.2000000000        1.0000000000
 
[5D]
[7F]
[9G]
[MO]
 Ene=  -0.19858645911888E+02
 Spin= Alpha
 Occup=    1.000000
   1      0.000301408820
   2      0.000556019144
   3      0.011051033644
   4     -0.000146284509
   5     -0.000006532520
   6     -0.000001814959
   7      0.012760346727
   8      0.000529858604
   9      0.000105664426
  10      0.000902264601
  11     -0.000047979032
  12      0.000507872849
  13     -0.001664939159
  14     -0.000143142756
  15      0.981011229757
  16      0.043754080696
  17     -0.032494993910
  18     -0.002987988642
  19     -0.000123437054
  20     -0.000024597952
  21      0.007433741544
  22      0.000308257767
  23      0.000061454385
  24     -0.000098197240
  25     -0.000006766271
  26      0.000241384092
  27      0.000116298988
  28      0.000008689165
  29     -0.001001374659
  30     -0.001131531362
  31      0.001820481725
  32     -0.000018847989
  33      0.000385643228
  34      0.000347714000
  35     -0.001658351063
  36     -0.001458050893
  37     -0.001263900358
  38     -0.000025053537
  39      0.000205268884
  40      0.000233293125
  41     -0.000019671802
  42      0.000235376821
  43     -0.000944425230
  44     -0.001124451445
  45      0.001821505206
  46      0.000018623018
  47     -0.000384814406
  48     -0.000346078374
  49     -0.001797136698
  50      0.001316821426
  51      0.001234925474
  52     -0.000028842750
  53     -0.000223558380
  54      0.000212207066
  55      0.000018703802
  56     -0.000240325851
 Ene=  -0.19829503180810E+02
 Spin= Alpha
 Occup=    0.000000
   1     -0.000000185004
   2     -0.000000390650
   3     -0.000006921104
   4      0.000000060027
   5      0.000000003436
   6     -0.000000000992
   7     -0.000008175167
   8     -0.000000344705
   9     -0.000000069615
  10     -0.000000525561
  11      0.000000032185
  12     -0.000000317324
  13      0.000001051042
  14      0.000000088389
  15     -0.000622439340
  16     -0.000027784581
  17      0.000020628715
  18      0.000001873454
  19      0.000000076294
  20      0.000000025289
  21     -0.000004754379
  22     -0.000000195098
  23     -0.000000043375
  24      0.000000162079
  25      0.000000009681
  26     -0.000000615138
  27      0.000000272993
  28      0.000000010549
  29      0.000005842429
  30      0.000000940829
  31     -0.000001303091
  32      0.000000017514
  33     -0.000000263765
  34     -0.000000217494
  35      0.000001051900
  36      0.000000952880
  37      0.000000822409
  38     -0.000000007440
  39     -0.000000133430
  40     -0.000000158743
  41      0.000000003364
  42     -0.000000138386
  43      0.000006058685
  44      0.000000950796
  45     -0.000001319305
  46     -0.000000006088
  47      0.000000263984
  48      0.000000217364
  49      0.000001138578
  50     -0.000000865542
  51     -0.000000807288
  52     -0.000000004288
  53      0.000000143076
  54     -0.000000145492
  55     -0.000000020387
  56      0.000000140399
 Ene=  -0.19800860549395E+02
 Spin= Alpha
 Occup=    0.000000
   1      0.000000077999
   2      0.000000247256
   3      0.000002856577
   4     -0.000000020113
   5      0.000000010676
   6      0.000000057024
   7     -0.000001887032
   8      0.000003006856
   9      0.000002667343
  10     -0.000000159380
  11      0.000000295388
  12     -0.000000328142
  13      0.000000148165
  14      0.000000280008
  15      0.000004980359
  16     -0.000000137309
  17      0.000000607132
  18      0.000000112856
  19      0.000000065492
  20      0.000000036385
  21     -0.000000220660
  22     -0.000000643380
  23     -0.000000546893
  24      0.000000032689
  25      0.000000058060
  26      0.000000088175
  27     -0.000000020759
  28      0.000000068384
  29      0.000285190012
  30      0.000012316163
  31     -0.000009692325
  32      0.000000395804
  33     -0.000000402901
  34     -0.000000678345
  35     -0.000001061822
  36      0.000001393225
  37      0.000001468894
  38     -0.000000116462
  39     -0.000000224919
  40     -0.000000137430
  41     -0.000000032602
  42     -0.000000160755
  43      0.000007109774
  44     -0.000000004895
  45      0.000001149798
  46     -0.000000091571
  47      0.000000011989
  48      0.000000001202
  49      0.000000916038
  50     -0.000000088582
  51     -0.000000080178
  52     -0.000000044207
  53      0.000000082186
  54     -0.000000055757
  55      0.000000127235
  56      0.000000095680
 Ene=  -0.19796213672908E+02
 Spin= Alpha
 Occup=    0.000000
   1      0.000000072299
   2      0.000000234498
   3      0.000002667918
   4     -0.000000017490
   5     -0.000000008977
   6     -0.000000054406
   7     -0.000001519934
   8     -0.000002547758
   9     -0.000002152804
  10     -0.000000166100
  11     -0.000000209163
  12     -0.000000331006
  13      0.000000175451
  14     -0.000000187251
  15      0.000004579488
  16     -0.000000132004
  17      0.000000575323
  18      0.000000110199
  19     -0.000000045622
  20     -0.000000026769
  21     -0.000000257796
  22      0.000000501924
  23      0.000000432947
  24      0.000000032438
  25     -0.000000051889
  26      0.000000077630
  27     -0.000000008188
  28     -0.000000059320
  29      0.000025191001
  30      0.000000818286
  31      0.000000353675
  32     -0.000000051587
  33     -0.000000049964
  34     -0.000000040814
  35      0.000000716788
  36      0.000000240946
  37      0.000000173404
  38     -0.000000039751
  39     -0.000000074186
  40     -0.000000058768
  41      0.000000122970
  42     -0.000000074929
  43      0.000247967446
  44      0.000010695114
  45     -0.000008343832
  46      0.000000290398
  47      0.000000354141
  48      0.000000624085
  49     -0.000000735896
  50     -0.000001276883
  51     -0.000001314726
  52     -0.000000111089
  53      0.000000203388
  54     -0.000000111631
  55     -0.000000037951
  56      0.000000144942
 Ene=  -0.19784870340495E+02
 Spin= Alpha
 Occup=    1.000000
   1      0.000191334460
   2      0.000570233002
   3      0.006752314122
   4     -0.000047850734
   5      0.000084546456
   6      0.000077458149
   7     -0.004689030037
   8      0.007806771411
   9      0.007159553613
  10     -0.000198325196
  11      0.000727413381
  12     -0.000769195136
  13      0.000459379876
  14      0.000811893621
  15      0.000893909683
  16     -0.000792393861
  17      0.001784019163
  18      0.000297408762
  19      0.000149049876
  20      0.000125504482
  21     -0.000595991689
  22     -0.001669562163
  23     -0.001484984062
  24      0.000015219154
  25      0.000163409405
  26      0.000178999023
  27     -0.000074867793
  28      0.000183406444
  29      0.718547803042
  30      0.031058786828
  31     -0.024495757480
  32      0.001007981632
  33     -0.001391212265
  34     -0.001281193537
  35     -0.002765649315
  36      0.003706715814
  37      0.003416001429
  38      0.000049129954
  39     -0.000211719740
  40      0.000051792344
  41     -0.000081568096
  42     -0.000239205024
  43     -0.012515745666
  44     -0.001357104805
  45      0.003962903696
  46     -0.000263256544
  47     -0.000053725124
  48     -0.000040519502
  49      0.002427042921
  50     -0.000026784123
  51     -0.000097800155
  52     -0.000158825596
  53      0.000175533598
  54     -0.000132345261
  55      0.000291051745
  56      0.000210111650
 Ene=  -0.19781052119389E+02
 Spin= Alpha
 Occup=    1.000000
   1     -0.000032782641
   2     -0.000098870315
   3     -0.001162289972
   4      0.000007354180
   5      0.000015061418
   6      0.000013182372
   7      0.000683761679
   8      0.001312112663
   9      0.001158931548
  10      0.000037068017
  11      0.000103261822
  12      0.000143163692
  13     -0.000101293804
  14      0.000113582850
  15     -0.000161828345
  16      0.000135942837
  17     -0.000309473931
  18     -0.000053211289
  19      0.000019649108
  20      0.000019285008
  21      0.000128893887
  22     -0.000259333404
  23     -0.000236624161
  24     -0.000001814994
  25      0.000029061181
  26     -0.000027661844
  27      0.000007175522
  28      0.000031932968
  29     -0.002290522159
  30      0.000036775265
  31     -0.000511426012
  32      0.000038342953
  33      0.000002985708
  34      0.000001961248
  35     -0.000385167382
  36     -0.000060934717
  37     -0.000042796519
  38      0.000026778603
  39      0.000027128139
  40      0.000024502292
  41     -0.000053430429
  42      0.000027582949
  43     -0.119322699952
  44     -0.005156002201
  45      0.004050119278
  46     -0.000142986613
  47     -0.000243834285
  48     -0.000215031149
  49      0.000385376912
  50      0.000653017528
  51      0.000575451228
  52     -0.000007241065
  53     -0.000033875282
  54     -0.000011058191
  55      0.000017244675
  56     -0.000037036357
 Ene=  -0.10838670996689E+02
 Spin= Alpha
 Occup=    1.000000
   1      0.969184093606
   2      0.047891005904
   3      0.001193773211
   4      0.000792708931
   5      0.000058890658
   6      0.000031917721
   7      0.000605773825
   8      0.000033537656
   9      0.000018573226
  10     -0.001042120238
  11     -0.000124178307
  12      0.003548035299
  13      0.001050232139
  14      0.000059206750
  15     -0.000095634541
  16      0.000496765844
  17     -0.008919128763
  18      0.000955155863
  19      0.000038894711
  20      0.000007458182
  21      0.006826278645
  22      0.000283545661
  23      0.000055453429
  24      0.000652553278
  25     -0.000018368811
  26      0.000011266187
  27     -0.001129075979
  28     -0.000093086130
  29     -0.000063313619
  30      0.000684613617
  31     -0.008508007300
  32     -0.000489863730
  33      0.000605757736
  34      0.000559478942
  35     -0.003075925800
  36      0.004564583365
  37      0.004194970052
  38     -0.000049624963
  39      0.000780545111
  40     -0.001066390391
  41      0.000261362923
  42      0.000846777478
  43     -0.000062391180
  44      0.000684951539
  45     -0.008460678633
  46     -0.000428380782
  47     -0.000640550690
  48     -0.000562812775
  49     -0.002620941776
  50     -0.004782147424
  51     -0.004221581203
  52     -0.000067296125
  53     -0.000682499592
  54     -0.001137829475
  55      0.000405983907
  56     -0.000775431786
 Ene=  -0.10838267367040E+02
 Spin= Alpha
 Occup=    0.000000
   1     -0.000225995522
   2     -0.000011165274
   3     -0.000000276214
   4     -0.000000186863
   5     -0.000000015236
   6     -0.000000003940
   7     -0.000000141924
   8     -0.000000006302
   9     -0.000000005550
  10      0.000000415752
  11      0.000000031248
  12     -0.000000805846
  13     -0.000000138126
  14     -0.000000010425
  15      0.000000017561
  16     -0.000000114525
  17      0.000002079048
  18     -0.000000222145
  19     -0.000000008890
  20     -0.000000002742
  21     -0.000001591787
  22     -0.000000065834
  23     -0.000000011352
  24     -0.000000197864
  25     -0.000000003038
  26     -0.000000020065
  27      0.000000237431
  28      0.000000021361
  29      0.000000016354
  30     -0.000000156945
  31      0.000001979807
  32      0.000000117090
  33     -0.000000114579
  34     -0.000000159213
  35      0.000000714664
  36     -0.000001078820
  37     -0.000000958567
  38     -0.000000131274
  39     -0.000000131907
  40      0.000000239454
  41     -0.000000144289
  42     -0.000000237524
  43      0.000000015156
  44     -0.000000156638
  45      0.000001970507
  46      0.000000103515
  47      0.000000122863
  48      0.000000162620
  49      0.000000610419
  50      0.000001129836
  51      0.000000964165
  52     -0.000000134895
  53      0.000000112618
  54      0.000000249006
  55     -0.000000181285
  56      0.000000215487
 Ene=  -0.13647466598852E+01
 Spin= Alpha
 Occup=    1.000000
   1     -0.055750099609
   2      0.109925558162
   3      0.002445043411
   4      0.034341846959
   5      0.001827538164
   6      0.000609096820
   7      0.000377534902
   8      0.000031586003
   9      0.000030468794
  10     -0.003834446109
  11     -0.000130904701
  12      0.005326488924
  13      0.005496233912
  14      0.000409457716
  15     -0.074230693265
  16      0.151070462543
  17      0.078565326412
  18     -0.046243928770
  19     -0.002049545592
  20     -0.000307391161
  21     -0.011785550250
  22     -0.000449033740
  23     -0.000053528741
  24     -0.001829766608
  25     -0.000068146977
  26      0.002744157864
  27      0.002579035145
  28      0.000193158451
  29     -0.027064972737
  30      0.053074332767
  31      0.027479096785
  32      0.013575468274
  33     -0.013212625230
  34     -0.012347335276
  35      0.003501748364
  36     -0.003178740168
  37     -0.002972583735
  38      0.000099654133
  39     -0.001713032580
  40      0.001383961883
  41     -0.000352368334
  42     -0.001876801164
  43     -0.026514706267
  44      0.051970481087
  45      0.026921795981
  46      0.011941567260
  47      0.014103021690
  48      0.012264469203
  49      0.003110666480
  50      0.003407608823
  51      0.002961172485
  52      0.000127649937
  53      0.001538060509
  54      0.001525415191
  55     -0.000651739896
  56      0.001728589083
 Ene=  -0.13384823237670E+01
 Spin= Alpha
 Occup=    0.000000
   1     -0.000002597478
   2      0.000005035593
   3     -0.000000037210
   4      0.000000628172
   5      0.000000635119
   6     -0.000000957679
   7      0.000000064000
   8     -0.000000319274
   9      0.000000429811
  10      0.000000622947
  11      0.000000025797
  12      0.000000420238
  13      0.000000526761
  14      0.000000063634
  15     -0.000002280303
  16      0.000004212289
  17      0.000003017809
  18     -0.000001607305
  19     -0.000000424370
  20      0.000004071516
  21     -0.000000630113
  22      0.000000015408
  23     -0.000000025091
  24      0.000000037546
  25     -0.000000128480
  26      0.000000224492
  27      0.000000120632
  28      0.000000033224
  29     -0.000001623153
  30      0.000003227457
  31      0.000001805425
  32      0.000000918821
  33     -0.000045892789
  34      0.000048263558
  35      0.000000341071
  36     -0.000000096338
  37     -0.000000356678
  38     -0.000001482233
  39      0.000000553192
  40     -0.000000079861
  41     -0.000000874060
  42     -0.000000767779
  43     -0.000001629073
  44      0.000003271134
  45      0.000001693687
  46      0.000000489471
  47      0.000045071268
  48     -0.000049111341
  49     -0.000000035969
  50      0.000000294148
  51      0.000000277334
  52     -0.000001507225
  53     -0.000000517567
  54     -0.000000159564
  55     -0.000000928271
  56      0.000000632092
 Ene=  -0.12107559815800E+01
 Spin= Alpha
 Occup=    0.000000
   1      0.000002089357
   2     -0.000004313613
   3     -0.000000365127
   4      0.000005185094
   5      0.000042586564
   6     -0.000045320373
   7      0.000000337897
   8     -0.000016992953
   9      0.000019204319
  10     -0.000000338520
  11     -0.000001113015
  12     -0.000000717532
  13      0.000000577000
  14      0.000001050112
  15     -0.000003542231
  16      0.000007456297
  17      0.000004019407
  18     -0.000001415763
  19      0.000022648068
  20     -0.000025201495
  21     -0.000000081422
  22      0.000006061850
  23     -0.000006689311
  24      0.000000082821
  25      0.000000590628
  26      0.000000146284
  27     -0.000000109682
  28     -0.000000550241
  29      0.000002831120
  30     -0.000005529422
  31     -0.000003471290
  32     -0.000000515121
  33     -0.000046773241
  34      0.000052948846
  35     -0.000000163675
  36      0.000003566423
  37     -0.000003373880
  38     -0.000001631659
  39      0.000000849115
  40     -0.000000247838
  41     -0.000000833713
  42     -0.000000662894
  43      0.000004298250
  44     -0.000008750990
  45     -0.000004656347
  46     -0.000000749879
  47     -0.000048666148
  48      0.000051418746
  49     -0.000000052392
  50      0.000002867167
  51     -0.000004113095
  52      0.000001583493
  53      0.000000657723
  54      0.000000137932
  55      0.000001050049
  56     -0.000000763582
 Ene=  -0.11978714663700E+01
 Spin= Alpha
 Occup=    1.000000
   1      0.006087376878
   2     -0.012849313821
   3     -0.001616558895
   4      0.016392042398
   5      0.000273419394
   6     -0.000343623238
   7      0.000838614920
   8     -0.000012525375
   9     -0.000020231027
  10     -0.000736246906
  11      0.000126918305
  12     -0.001841698800
  13      0.001655347260
  14      0.000197649759
  15     -0.011883567019
  16      0.024660540748
  17      0.014796582710
  18     -0.003806247254
  19     -0.000341389377
  20     -0.000071832821
  21     -0.001118082458
  22     -0.000087412079
  23     -0.000018338420
  24     -0.000034010871
  25     -0.000008086886
  26      0.000432709352
  27     -0.000032889658
  28      0.000003807666
  29      0.011579211254
  30     -0.023203329030
  31     -0.013424574102
  32     -0.002520129026
  33      0.004789030829
  34      0.004195393595
  35     -0.000613057184
  36      0.001356552730
  37      0.001152923311
  38     -0.000123028029
  39      0.000375147941
  40     -0.000405065819
  41      0.000283559006
  42      0.000425487461
  43      0.010698384780
  44     -0.021430551932
  45     -0.012377403212
  46     -0.001587917226
  47     -0.004496884640
  48     -0.004183147124
  49     -0.000366327373
  50     -0.001223549072
  51     -0.001169013015
  52     -0.000134230180
  53     -0.000289457494
  54     -0.000416110719
  55      0.000331206206
  56     -0.000312184775
 Ene=  -0.11810364423280E+01
 Spin= Alpha
 Occup=    0.000000
   1     -0.000001072036
   2      0.000002515760
   3      0.000000705010
   4     -0.000005715496
   5      0.000000847737
   6      0.000008291256
   7     -0.000000082656
   8      0.000001364329
   9     -0.000001440005
  10      0.000001317720
  11     -0.000000402766
  12      0.000000613708
  13      0.000000050479
  14     -0.000000451132
  15      0.000004354186
  16     -0.000008368807
  17     -0.000006527808
  18      0.000001738866
  19      0.000000020488
  20     -0.000003001286
  21      0.000000823710
  22     -0.000000161337
  23      0.000000317442
  24     -0.000000194870
  25      0.000000073032
  26     -0.000000383803
  27     -0.000000063674
  28     -0.000000062475
  29     -0.000006398383
  30      0.000012999923
  31      0.000007154289
  32      0.000001975352
  33     -0.000041157419
  34      0.000041370794
  35      0.000000320909
  36     -0.000002631777
  37      0.000002163177
  38     -0.000001279678
  39      0.000000184812
  40     -0.000000069226
  41     -0.000000840823
  42     -0.000000453565
  43      0.000000170446
  44     -0.000000324380
  45     -0.000000022120
  46     -0.000000698591
  47      0.000042935658
  48     -0.000047328526
  49     -0.000000293936
  50      0.000001921228
  51     -0.000001502513
  52     -0.000001435682
  53     -0.000000350672
  54     -0.000000083507
  55     -0.000000957289
  56      0.000000216457
 Ene=  -0.11702014078654E+01
 Spin= Alpha
 Occup=    1.000000
   1      0.000138958973
   2     -0.000281297956
   3     -0.000050296817
   4     -0.000117051307
   5      0.007224438650
   6      0.006496354539
   7      0.000019034766
   8      0.000625372326
   9      0.000561900382
  10      0.000010299551
  11     -0.000527907819
  12     -0.000053505802
  13      0.000084481002
  14     -0.000583239793
  15     -0.000197777556
  16      0.000412223461
  17      0.000255654824
  18     -0.000172849871
  19      0.001336711350
  20      0.001210643488
  21     -0.000058801860
  22      0.000479738867
  23      0.000434008813
  24     -0.000009937761
  25     -0.000121599793
  26      0.000000102393
  27      0.000015424256
  28     -0.000134644724
  29     -0.006142418592
  30      0.012375209317
  31      0.007113759864
  32      0.002331540315
  33     -0.001854877800
  34     -0.001776005567
  35      0.000690800659
  36     -0.000482178801
  37     -0.000400027489
  38      0.000004703388
  39     -0.000260453660
  40      0.000113196730
  41     -0.000022000051
  42     -0.000293536455
  43      0.006614243258
  44     -0.013314074771
  45     -0.007679929501
  46     -0.002035286576
  47     -0.002334088813
  48     -0.002026741832
  49     -0.000648861187
  50     -0.000549331718
  51     -0.000540566258
  52     -0.000023091400
  53     -0.000265390099
  54     -0.000165763405
  55      0.000083560401
  56     -0.000289729682
 Ene=  -0.71647209911013E+00
 Spin= Alpha
 Occup=    0.999998
   1      0.018972041612
   2     -0.046720206139
   3     -0.001315517220
   4     -0.025209137482
   5     -0.001726406184
   6     -0.000697578229
   7     -0.002124235704
   8     -0.000268192883
   9     -0.000084838146
  10      0.000844825999
  11     -0.000029423423
  12     -0.000684313290
  13     -0.001307789017
  14     -0.000228861984
  15     -0.016914793698
  16      0.035925394852
  17      0.038581821185
  18      0.060379289669
  19     -0.000291376433
  20     -0.000097531412
  21      0.029205805382
  22     -0.000012316183
  23     -0.000091370077
  24      0.001607272654
  25     -0.000052328505
  26      0.000886882048
  27     -0.002969902104
  28     -0.000150440360
  29     -0.009909263505
  30      0.020618990797
  31      0.019643045439
  32     -0.013279308352
  33      0.009885313098
  34      0.008653855546
  35     -0.006931183834
  36      0.004877749090
  37      0.004292840562
  38      0.000128753734
  39      0.000521445518
  40     -0.000455054598
  41     -0.000142589657
  42      0.000567070860
  43     -0.009238564770
  44      0.019219291803
  45      0.018136414129
  46     -0.011841174345
  47     -0.009161751750
  48     -0.008462480757
  49     -0.006094194296
  50     -0.004613448226
  51     -0.004238937728
  52      0.000089850832
  53     -0.000475649959
  54     -0.000441289218
  55     -0.000046096458
  56     -0.000537248083
 Ene=  -0.69777569525594E+00
 Spin= Alpha
 Occup=    0.000009
   1      0.000000016315
   2     -0.000000085535
   3      0.000000111131
   4     -0.000001388702
   5     -0.000010283739
   6      0.000029533007
   7      0.000000119008
   8     -0.000006262186
   9      0.000012181092
  10      0.000030764277
  11      0.000002646998
  12      0.000003990644
  13      0.000017383452
  14      0.000002115930
  15     -0.000000114618
  16      0.000000514520
  17      0.000000142702
  18      0.000001131832
  19      0.000002191508
  20      0.000074662104
  21      0.000000700525
  22      0.000002115945
  23      0.000035556339
  24      0.000000614779
  25     -0.000003124579
  26     -0.000000067886
  27      0.000000295510
  28      0.000000309870
  29      0.000005314819
  30     -0.000011192596
  31     -0.000011939307
  32      0.000013342700
  33     -0.000316484845
  34      0.000339239300
  35      0.000007672844
  36     -0.000113662052
  37      0.000121810413
  38     -0.000011243554
  39      0.000005532649
  40     -0.000000770328
  41     -0.000006056714
  42     -0.000005617061
  43     -0.000004922182
  44      0.000010136715
  45      0.000011450863
  46     -0.000008806465
  47      0.000273795977
  48     -0.000316137715
  49     -0.000005623438
  50      0.000095657397
  51     -0.000110167720
  52     -0.000009104190
  53     -0.000004483329
  54     -0.000001589477
  55     -0.000005549043
  56      0.000003442831
 Ene=  -0.66387332475290E+00
 Spin= Alpha
 Occup=    0.999640
   1     -0.000087008728
   2      0.000332367767
   3     -0.000070367740
   4      0.011225237129
   5     -0.133584720768
   6     -0.120432462591
   7      0.001456643824
   8     -0.021696826810
   9     -0.019549851931
  10     -0.000265219114
  11     -0.012959842259
  12     -0.000829903426
  13      0.001597496542
  14     -0.014355632744
  15      0.001079093009
  16     -0.002150430145
  17     -0.003146150561
  18      0.006871625844
  19     -0.256471970258
  20     -0.230777470477
  21      0.004511832399
  22     -0.151109957844
  23     -0.135983912895
  24      0.000012155024
  25      0.010074126970
  26      0.000432351551
  27     -0.000764746552
  28      0.011182941703
  29     -0.061047136739
  30      0.126132067800
  31      0.142259393976
  32     -0.114561838170
  33      0.077897190063
  34      0.074552891696
  35     -0.063692641005
  36      0.036642018676
  37      0.035416929734
  38      0.001307848460
  39      0.003575687135
  40     -0.004446230866
  41     -0.001593598239
  42      0.003697214333
  43      0.059976596828
  44     -0.123804196055
  45     -0.139650473614
  46      0.105959863632
  47      0.084129532105
  48      0.071359197995
  49      0.059705711646
  50      0.040008311124
  51      0.033602774660
  52     -0.001279052604
  53      0.003265151920
  54      0.004545888497
  55      0.000970625291
  56      0.003882455225
 Ene=  -0.65449161619249E+00
 Spin= Alpha
 Occup=    0.000352
   1      0.000013490344
   2     -0.000034392313
   3     -0.000002413118
   4     -0.000070345305
   5      0.001022321891
   6      0.000708339601
   7     -0.000008742325
   8      0.000180790937
   9      0.000066816775
  10      0.000048919420
  11      0.000065494047
  12      0.000009773460
  13      0.000015847079
  14      0.000107688885
  15     -0.000010748141
  16      0.000022259172
  17      0.000028058307
  18     -0.000056304200
  19      0.001949915819
  20      0.001167934790
  21     -0.000032368536
  22      0.001158068897
  23      0.000742060129
  24      0.000001875074
  25     -0.000052739641
  26     -0.000001963119
  27      0.000006735543
  28     -0.000086736137
  29      0.000393119310
  30     -0.000814567830
  31     -0.000916006845
  32      0.000718246753
  33     -0.000914775340
  34     -0.000015515121
  35      0.000425161661
  36     -0.000397010100
  37     -0.000062472758
  38     -0.000020014664
  39     -0.000017324186
  40      0.000026751786
  41      0.000004650386
  42     -0.000028419378
  43     -0.000404701624
  44      0.000837440093
  45      0.000941336325
  46     -0.000683354218
  47     -0.000137551605
  48     -0.000976725393
  49     -0.000411096317
  50     -0.000100574641
  51     -0.000440579463
  52     -0.000010362322
  53     -0.000030180401
  54     -0.000033076828
  55     -0.000017526233
  56     -0.000018437047
 Ene=  -0.64286735228809E+00
 Spin= Alpha
 Occup=    0.999978
   1     -0.000641072930
   2      0.001609521327
   3      0.000222268662
   4     -0.009408152742
   5      0.209184550805
   6     -0.232811800239
   7     -0.003303988862
   8      0.085614108570
   9     -0.095265215000
  10     -0.000464447121
  11     -0.009580840601
  12     -0.000344071465
  13     -0.000792577995
  14      0.008582079921
  15     -0.000376837398
  16      0.000797741397
  17      0.001135257002
  18     -0.006425513064
  19      0.246056378097
  20     -0.273650961663
  21     -0.003796700710
  22      0.143235225296
  23     -0.159304610850
  24      0.000228372319
  25      0.015405625152
  26      0.000528281891
  27      0.000937861363
  28     -0.013834753458
  29      0.000678596681
  30     -0.001389444962
  31     -0.001658487949
  32     -0.005075944626
  33      0.127084707337
  34     -0.145250949113
  35     -0.002882510838
  36      0.070597039129
  37     -0.080638969527
  38      0.010567578864
  39     -0.005126214653
  40      0.001226494058
  41      0.005686732682