[Molden Format]
[Title]
generated by TRESC, imaginary part2 of MOs of job CO3
 
[Atoms] AU
 C   1   6    0.3364484192    5.8882927452    0.3891081484
 O   2   8    2.6974300312    5.9862747024    0.4085979628
 O   3   8   -0.7714112401    7.4618585764    1.8371371576
 O   4   8   -0.6184572465    4.2284969646   -1.0743142370
[GTO]
  1 0
 s  5 1.0
     1238.4016938000        0.0059599745
      186.2900499200        0.0422621111
       42.2511763500        0.1866575214
       11.6765579300        0.4675815865
        3.5930506500        0.4422897287
 s  1 1.0
        0.4024514700        1.0000000000
 s  1 1.0
        0.1309018300        1.0000000000
 p  3 1.0
        9.4680970600        0.0570294585
        2.0103545100        0.3130471495
        0.5477100500        0.7605135301
 p  1 1.0
        0.1526861400        1.0000000000
 d  1 1.0
        0.8000000000        1.0000000000
 
  2 0
 s  5 1.0
     2266.1767785000        0.0060711540
      340.8701019100        0.0417308970
       77.3631351700        0.1850777598
       21.4796449400        0.4668774046
        6.6589433100        0.4435718061
 s  1 1.0
        0.8097597600        1.0000000000
 s  1 1.0
        0.2553077200        1.0000000000
 p  3 1.0
       17.7215043200        0.0628680198
        3.8635505400        0.3334973703
        1.0480920900        0.7412421661
 p  1 1.0
        0.2764154400        1.0000000000
 d  1 1.0
        1.2000000000        1.0000000000
 
  3 0
 s  5 1.0
     2266.1767785000        0.0060711540
      340.8701019100        0.0417308970
       77.3631351700        0.1850777598
       21.4796449400        0.4668774046
        6.6589433100        0.4435718061
 s  1 1.0
        0.8097597600        1.0000000000
 s  1 1.0
        0.2553077200        1.0000000000
 p  3 1.0
       17.7215043200        0.0628680198
        3.8635505400        0.3334973703
        1.0480920900        0.7412421661
 p  1 1.0
        0.2764154400        1.0000000000
 d  1 1.0
        1.2000000000        1.0000000000
 
  4 0
 s  5 1.0
     2266.1767785000        0.0060711540
      340.8701019100        0.0417308970
       77.3631351700        0.1850777598
       21.4796449400        0.4668774046
        6.6589433100        0.4435718061
 s  1 1.0
        0.8097597600        1.0000000000
 s  1 1.0
        0.2553077200        1.0000000000
 p  3 1.0
       17.7215043200        0.0628680198
        3.8635505400        0.3334973703
        1.0480920900        0.7412421661
 p  1 1.0
        0.2764154400        1.0000000000
 d  1 1.0
        1.2000000000        1.0000000000
 
[5D]
[7F]
[9G]
[MO]
 Ene=   0.99805942456929E+00
 Spin= Alpha
 Occup=    0.000000
   1     -0.000148986834
   2      0.004417656796
   3      0.004580597926
   4     -0.000936133953
   5     -0.000248684173
   6     -0.000194225603
   7      0.002244263426
   8      0.000219501888
   9      0.000117749923
  10      0.000091682652
  11      0.000134699809
  12      0.001751058125
  13     -0.000555253547
  14      0.000178906591
  15     -0.000357730604
  16      0.001988486423
  17     -0.004373959330
  18      0.000552221684
  19     -0.000353778016
  20     -0.000355664630
  21     -0.000364674355
  22      0.000042024605
  23      0.000079524623
  24      0.000027441626
  25     -0.000069370082
  26     -0.000024431214
  27     -0.000029570749
  28     -0.000081017984
  29      0.000347775242
  30     -0.001178453050
  31     -0.001210782630
  32      0.000535456876
  33     -0.002094489556
  34     -0.002067533628
  35     -0.002811076938
  36      0.003093498778
  37      0.003065808622
  38     -0.000051025993
  39     -0.000079081106
  40     -0.000063768010
  41      0.000113404445
  42     -0.000082566278
  43      0.000735841289
  44     -0.003016814589
  45      0.000313600667
  46      0.002307869745
  47      0.003278142929
  48      0.003052006903
  49     -0.004696642096
  50     -0.005047736868
  51     -0.004596334204
  52     -0.000027674445
  53      0.000090946264
  54     -0.000010620534
  55      0.000049992893
  56      0.000103321570
 Ene=   0.10079583611946E+01
 Spin= Alpha
 Occup=    0.000000
   1     -0.000000537611
   2     -0.000004953131
   3     -0.000002814353
   4     -0.000017370966
   5      0.000633708723
   6     -0.001176183474
   7      0.000270909114
   8     -0.008632020197
   9      0.012301874534
  10      0.028508472311
  11      0.000055723566
  12      0.003497056039
  13      0.016390020099
  14      0.001404291275
  15     -0.000002152285
  16      0.000011437687
  17     -0.000017231942
  18      0.000360779965
  19     -0.011323037190
  20      0.014601505120
  21     -0.000489361819
  22      0.015658848967
  23     -0.020901067041
  24     -0.019604046964
  25     -0.000223690116
  26     -0.002411319681
  27     -0.011299265444
  28     -0.000613683413
  29     -0.000077782479
  30      0.000363908590
  31     -0.000987128643
  32      0.014590383887
  33     -0.450626028520
  34      0.501716853529
  35     -0.016890882300
  36      0.525676365085
  37     -0.585536494517
  38     -0.013599090672
  39      0.001297529531
  40     -0.001653433236
  41     -0.007794609790
  42     -0.001606003593
  43      0.000080848976
  44     -0.000380918135
  45      0.001009762321
  46     -0.014623586333
  47      0.451700117979
  48     -0.501917728842
  49      0.016757744499
  50     -0.521451545247
  51      0.579148495887
  52     -0.013211349769
  53     -0.001274554015
  54     -0.001631276464
  55     -0.007660646817
  56      0.000720156240
 Ene=   0.10571739464121E+01
 Spin= Alpha
 Occup=    0.000000
   1     -0.000108246432
   2      0.001284730890
   3      0.000975770673
   4      0.003003348786
   5     -0.053247624097
   6     -0.047964220292
   7     -0.015002555638
   8      0.262316211944
   9      0.236349141548
  10      0.000609408003
  11      0.052600736333
  12      0.002707712023
  13     -0.005141772208
  14      0.058332145613
  15     -0.000419650123
  16      0.002512736671
  17     -0.002526636493
  18     -0.006082967781
  19      0.134091760320
  20      0.120741542096
  21      0.014056694812
  22     -0.268831161773
  23     -0.242136663792
  24     -0.000345037160
  25     -0.016734310140
  26     -0.000763820027
  27      0.001747968692
  28     -0.018546834745
  29     -0.003003688342
  30      0.005229574416
  31     -0.120951531612
  32     -0.022971268192
  33      0.070415408319
  34      0.066104822559
  35      0.025114952960
  36     -0.132546295404
  37     -0.122082856196
  38      0.001049880457
  39      0.001663921972
  40     -0.010451068707
  41      0.000347722999
  42      0.001478034619
  43      0.003589101290
  44     -0.008164343022
  45      0.122129984299
  46      0.013104181427
  47      0.076547468882
  48      0.066391552444
  49     -0.007282845789
  50     -0.139393831529
  51     -0.123069024010
  52     -0.000878644315
  53      0.000746514288
  54      0.010504317326
  55     -0.000739669203
  56      0.001178315171
 Ene=   0.10696988079840E+01
 Spin= Alpha
 Occup=    0.000000
   1     -0.000000852041
   2     -0.000017609281
   3      0.000039702579
   4     -0.000035295242
   5      0.000184281912
   6     -0.000199617293
   7      0.000279271707
   8     -0.003320313934
   9      0.003670174336
  10      0.000011883085
  11     -0.000033423627
  12     -0.000006670059
  13     -0.000013041159
  14      0.000019025232
  15      0.000008783176
  16     -0.000051230251
  17     -0.000021572376
  18      0.000027504851
  19     -0.000781445223
  20      0.000877016678
  21     -0.000101653005
  22      0.001914935311
  23     -0.002134694676
  24      0.000000870078
  25     -0.000068823320
  26     -0.000009755627
  27     -0.000009130247
  28      0.000061877731
  29     -0.000013972699
  30      0.000076705263
  31     -0.000050671058
  32      0.000118274729
  33     -0.001610436179
  34      0.001877591752
  35     -0.000217482825
  36      0.002979559042
  37     -0.003397977851
  38     -0.000124608211
  39      0.000042228921
  40     -0.000012004597
  41     -0.000067278995
  42     -0.000046828423
  43     -0.000014530569
  44      0.000078258164
  45     -0.000065502110
  46      0.000147963504
  47     -0.001677499998
  48      0.001738482588
  49     -0.000265966128
  50      0.003053417245
  51     -0.003244882578
  52      0.000120444137
  53      0.000044839354
  54      0.000015561332
  55      0.000076249488
  56     -0.000028283676
 Ene=   0.11001213716386E+01
 Spin= Alpha
 Occup=    0.000000
   1     -0.000000291649
   2      0.000013696223
   3      0.000030970990
   4     -0.000013567381
   5      0.000025591975
   6      0.000023306618
   7      0.000063529190
   8     -0.000115872484
   9     -0.000112370403
  10     -0.000051542860
  11     -0.000027316934
  12      0.000002994653
  13     -0.000036433769
  14     -0.000044814315
  15      0.000000651689
  16     -0.000004994303
  17     -0.000023750968
  18      0.000009226285
  19     -0.000143281478
  20      0.000007799477
  21     -0.000024986682
  22      0.000227317206
  23      0.000051139910
  24      0.000018017862
  25      0.000008830429
  26      0.000000681562
  27      0.000006991744
  28      0.000016957336
  29      0.000004726379
  30     -0.000013438490
  31      0.000053796493
  32      0.000061709994
  33      0.000530354859
  34     -0.000656169952
  35     -0.000099347039
  36     -0.000565073263
  37      0.000756127206
  38      0.000020263547
  39     -0.000011370756
  40      0.000006644873
  41      0.000014406122
  42      0.000006553033
  43     -0.000006173670
  44      0.000029617956
  45     -0.000083432906
  46     -0.000001154453
  47     -0.000527548867
  48      0.000518022068
  49     -0.000023637044
  50      0.000602074535
  51     -0.000550799806
  52      0.000019378068
  53      0.000004818202
  54     -0.000002275641
  55      0.000012399133
  56     -0.000002923746
 Ene=   0.11340584997766E+01
 Spin= Alpha
 Occup=    0.000000
   1      0.000280951414
   2     -0.003980695749
   3     -0.015154714704
   4      0.003948773650
   5      0.000966804626
   6     -0.001639973241
   7     -0.015340368494
   8     -0.018242048383
   9      0.023949118803
  10     -0.001483888125
  11      0.000701205116
  12     -0.002217601911
  13      0.002958465468
  14      0.000954421502
  15      0.000070151227
  16     -0.000020002622
  17      0.009327291889
  18     -0.001355287602
  19     -0.005156084080
  20      0.010396712358
  21      0.004286156331
  22      0.009938987019
  23     -0.019808242569
  24     -0.000316826119
  25     -0.000981468042
  26      0.000798984427
  27      0.000370061786
  28      0.000065828916
  29      0.000907344923
  30     -0.006642032575
  31      0.010239371853
  32     -0.012530246888
  33     -0.011792448713
  34      0.007869098648
  35      0.021528478958
  36      0.017457054167
  37     -0.018589470160
  38     -0.000471177795
  39      0.000784986928
  40      0.000041945248
  41     -0.000990015212
  42      0.000354265261
  43      0.001382867983
  44     -0.008866235067
  45      0.014213305420
  46     -0.005861281901
  47     -0.007464600284
  48      0.012518968924
  49      0.013214416468
  50      0.017709947837
  51     -0.019126483623
  52      0.000901805032
  53     -0.000198118546
  54      0.000193905639
  55      0.000248003164
  56     -0.000626919479
 Ene=   0.11553230611990E+01
 Spin= Alpha
 Occup=    0.000000
   1     -0.000411496229
   2      0.006980375531
   3      0.026501510346
   4     -0.005531288255
   5      0.035073782234
   6      0.031631267907
   7      0.017981722464
   8     -0.016051803256
   9     -0.013914894987
  10      0.001006077437
  11     -0.062721853702
  12     -0.000109890591
  13      0.003069768102
  14     -0.069624114027
  15     -0.000487508976
  16      0.002985035436
  17     -0.017197151256
  18     -0.008806325044
  19      0.204014123224
  20      0.184032138468
  21      0.012510905602
  22     -0.301696374185
  23     -0.272298466857
  24     -0.000045818594
  25     -0.019610457150
  26     -0.002055523261
  27      0.001587229301
  28     -0.021783178808
  29     -0.011682050145
  30      0.078076318057
  31     -0.121350036964
  32     -0.406554862454
  33     -0.218278519398
  34     -0.179048407632
  35      0.508199064268
  36      0.330613183379
  37      0.276670993837
  38      0.013890659725
  39      0.014017073929
  40      0.020036779863
  41     -0.029427271905
  42      0.014364544816
  43      0.008169288592
  44     -0.054396894199
  45      0.080149688332
  46      0.447023312521
  47     -0.183062818459
  48     -0.181918114958
  49     -0.578788080923
  50      0.278056491670
  51      0.270796777907
  52     -0.013948176112
  53      0.017448134382
  54     -0.018746329836
  55      0.026854615975
  56      0.020523019158
 Ene=   0.11578464109379E+01
 Spin= Alpha
 Occup=    0.000000
   1     -0.000003915672
   2      0.000023297634
   3      0.000163703711
   4     -0.000019991044
   5      0.000321019543
   6     -0.000305797642
   7      0.000241709951
   8     -0.004937047128
   9      0.005460860147
  10      0.000013277570
  11     -0.000260014635
  12     -0.000013758780
  13     -0.000028162509
  14      0.000143265525
  15     -0.000012466753
  16      0.000074621564
  17     -0.000163409971
  18      0.000025239341
  19      0.000153805302
  20      0.000084284589
  21     -0.000051540747
  22      0.001223435115
  23     -0.001732028769
  24     -0.000000901001
  25     -0.000054014043
  26     -0.000007703173
  27     -0.000001475720
  28      0.000025094483
  29     -0.000019004955
  30      0.000122376368
  31     -0.000191684590
  32     -0.000137821746
  33     -0.003472138324
  34      0.003615722760
  35      0.000100983720
  36      0.005544195513
  37     -0.005738482198
  38     -0.000224488738
  39      0.000127302656
  40     -0.000012580131
  41     -0.000146832458
  42     -0.000110177514
  43     -0.000005694038
  44      0.000031630039
  45     -0.000056768639
  46      0.000421221451
  47     -0.003495045578
  48      0.003596182436
  49     -0.000603066608
  50      0.005523600349
  51     -0.005754559754
  52      0.000226208604
  53      0.000127931443
  54      0.000018749789
  55      0.000159182162
  56     -0.000078173619
 Ene=   0.11671873808436E+01
 Spin= Alpha
 Occup=    0.000000
   1     -0.000018142732
   2      0.000286253272
   3      0.000991157658
   4     -0.000084687940
   5     -0.001352983149
   6     -0.001069536721
   7      0.000427132805
   8      0.003474944653
   9      0.000843419138
  10      0.000088334690
  11      0.002148144289
  12      0.000224865498
  13     -0.000344529003
  14      0.002354058403
  15     -0.000035497869
  16      0.000204088757
  17     -0.000704892480
  18      0.000136055139
  19     -0.001604235083
  20     -0.002186294666
  21     -0.000149161613
  22      0.001514117559
  23      0.002842939339
  24      0.000010554946
  25      0.000071716871
  26     -0.000033672500
  27     -0.000011334539
  28      0.000021285763
  29      0.000051335041
  30     -0.000690459409
  31      0.000592089318
  32      0.007167173077
  33      0.005432824486
  34      0.003479242634
  35     -0.009192623119
  36     -0.008440012099
  37     -0.005271880356
  38     -0.000218451465
  39     -0.000297237746
  40     -0.000494012663
  41      0.000609631633
  42     -0.000277039298
  43     -0.000158856932
  44      0.001456420611
  45     -0.002053868021
  46     -0.006915972285
  47      0.004752783664
  48      0.003289316515
  49      0.008555853001
  50     -0.007933806742
  51     -0.005345144764
  52      0.000199082133
  53     -0.000306147081
  54      0.000449523672
  55     -0.000530688729
  56     -0.000329319944
 Ene=   0.11718204593243E+01
 Spin= Alpha
 Occup=    0.000000
   1      0.000740000984
   2     -0.011826228992
   3     -0.044545413418
   4      0.002890524626
   5      0.024407822188
   6     -0.027065626447
   7     -0.005956781941
   8     -0.378632924138
   9      0.419884710446
  10     -0.001537333899
  11     -0.004337376208
  12     -0.003276826002
  13      0.002947774505
  14      0.004477242445
  15      0.001740771800
  16     -0.011067485324
  17      0.033139569246
  18      0.003566697364
  19     -0.121044405832
  20      0.134316003092
  21     -0.011235259018
  22      0.242845233566
  23     -0.269841966374
  24     -0.000337574316
  25     -0.009258072153
  26      0.001072956850
  27     -0.000457782002
  28      0.008281303656
  29      0.002721844147
  30     -0.018220047821
  31      0.033682870687
  32     -0.004026955843
  33     -0.202524969970
  34      0.219930774652
  35      0.010215858829
  36      0.336657341548
  37     -0.382578571792
  38     -0.015688691333
  39      0.006102338873
  40     -0.001564861501
  41     -0.008852057221
  42     -0.004793764504
  43      0.002676187467
  44     -0.017894746151
  45      0.032965106537
  46     -0.004853677605
  47     -0.201066644931
  48      0.228506899839
  49      0.010482729448
  50      0.349189508152
  51     -0.379258858217
  52      0.015906177525
  53      0.004421822719
  54      0.002269989043
  55      0.009398555008
  56     -0.004728989607
 Ene=   0.11958728654115E+01
 Spin= Alpha
 Occup=    0.000000
   1      0.001133698193
   2     -0.020168837997
   3     -0.077204954835
   4     -0.004307895715
   5      0.000246117007
   6     -0.000421129284
   7     -0.011869793420
   8     -0.006577003391
   9      0.005352467765
  10      0.001429125388
  11     -0.000093387575
  12     -0.000427566114
  13     -0.002383895464
  14     -0.000249193823
  15      0.005378836178
  16     -0.036678293018
  17      0.079241538519
  18      0.003465368485
  19     -0.002137530936
  20      0.001645191014
  21     -0.028475559800
  22      0.003168884941
  23     -0.003453819582
  24      0.000434444078
  25     -0.000149481078
  26      0.001048960853
  27     -0.000987026292
  28      0.000097147458
  29      0.003458585027
  30     -0.022512450147
  31      0.047047267773
  32      0.002183963368
  33     -0.001281882981
  34      0.004736882077
  35      0.002915702086
  36     -0.005361834527
  37     -0.014730914018
  38     -0.000933741666
  39      0.000103610165
  40      0.000181360252
  41      0.001050398117
  42      0.000118803184
  43      0.003358406794
  44     -0.021948694259
  45      0.045664264617
  46      0.001277731666
  47     -0.004456117075
  48      0.002056857037
  49      0.003080637379
  50      0.015241512590
  51      0.003632012194
  52     -0.000448409018
  53     -0.000032932726
  54      0.000224075055
  55      0.001261761436
  56     -0.000015115550
 Ene=   0.12031803092884E+01
 Spin= Alpha
 Occup=    0.000000
   1     -0.000007505162
   2      0.000130006202
   3      0.000492322700
   4      0.000021742564
   5      0.000000175544
   6      0.000006988120
   7      0.000068242060
   8      0.000035854967
   9     -0.000058061965
  10     -0.000026293366
  11     -0.000004040365
  12      0.000002699731
  13      0.000000576374
  14     -0.000004581423
  15     -0.000032823812
  16      0.000222355819
  17     -0.000480191964
  18     -0.000019773463
  19      0.000009392416
  20     -0.000037759989
  21      0.000167052259
  22     -0.000008092390
  23      0.000063488017
  24      0.000011033885
  25      0.000003417365
  26     -0.000003538790
  27      0.000012468485
  28      0.000002247153
  29     -0.000021774592
  30      0.000145300341
  31     -0.000303112609
  32      0.000003688515
  33      0.000182633917
  34     -0.000218986868
  35     -0.000042698633
  36     -0.000146353856
  37      0.000302104960
  38      0.000012548752
  39     -0.000002361176
  40      0.000000004608
  41     -0.000001458413
  42     -0.000000729748
  43     -0.000023431885
  44      0.000151819983
  45     -0.000315417003
  46     -0.000011542008
  47     -0.000144780343
  48      0.000174786399
  49     -0.000016417404
  50      0.000079841928
  51     -0.000220690975
  52      0.000009738541
  53      0.000001227756
  54     -0.000000900242
  55     -0.000004229965
  56     -0.000000153794
 Ene=   0.15302253754344E+01
 Spin= Alpha
 Occup=    0.000000
   1      0.000002170036
   2     -0.000025098580
   3     -0.000065003034
   4      0.000038828112
   5      0.000002405823
   6      0.000000331899
   7      0.000288960213
   8      0.000020025424
   9      0.000003442233
  10     -0.000219064408
  11      0.000010271471
  12     -0.000047477286
  13     -0.000096840348
  14     -0.000026232110
  15     -0.000014642952
  16      0.000113730815
  17     -0.000320260597
  18     -0.000005058174
  19     -0.000002186282
  20      0.000006273346
  21      0.000098867709
  22      0.000010004799
  23     -0.000007254929
  24     -0.000016523766
  25     -0.000000775489
  26     -0.000002929118
  27     -0.000001738373
  28      0.000004900038
  29      0.000013390401
  30     -0.000098782119
  31      0.000231413799
  32      0.000023097978
  33      0.000126407315
  34     -0.000115181292
  35     -0.000032563343
  36     -0.000234749717
  37      0.000097286740
  38      0.000037136236
  39     -0.000019648980
  40     -0.000000846932
  41      0.000018717418
  42      0.000024493011
  43      0.000011843289
  44     -0.000092506805
  45      0.000237783028
  46      0.000026458462
  47     -0.000114458363
  48      0.000100719796
  49     -0.000045552100
  50      0.000220746511
  51     -0.000074619235
  52      0.000031361586
  53      0.000020216026
  54     -0.000000329028
  55      0.000021265825
  56     -0.000018961332
 Ene=   0.15346349573945E+01
 Spin= Alpha
 Occup=    0.000000
   1      0.011730957277
   2     -0.131853053431
   3     -0.323954019366
   4      0.251639171481
   5      0.007056973677
   6     -0.001024107828
   7      1.816457089586
   8      0.049609983602
   9     -0.010177732649
  10     -0.066146457222
  11      0.008828773897
  12     -0.133190281197
  13      0.142178604315
  14      0.015976690995
  15     -0.096845642635
  16      0.748101096332
  17     -2.081469874872
  18     -0.030398945944
  19     -0.003055615457
  20     -0.001979213173
  21      0.645224803260
  22      0.032696979799
  23      0.011921516632
  24     -0.021651808661
  25      0.000421517336
  26      0.003750921794
  27      0.036647516274
  28      0.002374727524
  29      0.077133626940
  30     -0.587654794760
  31      1.451332847090
  32      0.146108701299
  33      0.082865452277
  34      0.069023033442
  35     -0.215178010148
  36     -0.521042508072
  37     -0.461212253490
  38      0.002208993046
  39      0.013720758447
  40     -0.028370926159
  41      0.000995566316
  42      0.014437642335
  43      0.073951238203
  44     -0.562763094481
  45      1.378942660038
  46      0.156817464141
  47     -0.070189258559
  48     -0.068907749626
  49     -0.281135166707
  50      0.488730482523
  51      0.448615360005
  52      0.002303498269
  53     -0.010935599842
  54     -0.028651068002
  55      0.003168753738
  56     -0.012864212209
 Ene=   0.15662492065412E+01
 Spin= Alpha
 Occup=    0.000000
   1     -0.000000343272
   2      0.000001230661
   3     -0.000000015335
   4     -0.000000387207
   5     -0.000016325075
   6      0.000020801409
   7     -0.000019358579
   8      0.000265830599
   9     -0.000275619388
  10     -0.000068019313
  11     -0.001661467501
  12     -0.000059655040
  13     -0.000143843443
  14      0.001486118699
  15     -0.000000477532
  16      0.000001257033
  17      0.000008522067
  18     -0.000001595580
  19      0.000109855972
  20     -0.000121696377
  21      0.000016599217
  22     -0.000677662368
  23      0.000749865226
  24      0.000002060063
  25      0.000512551146
  26      0.000017571320
  27      0.000031617742
  28     -0.000459671302
  29     -0.000000320495
  30      0.000004260229
  31     -0.000018896563
  32     -0.000005489995
  33      0.000147591257
  34     -0.000162503810
  35     -0.000002620172
  36     -0.000007995870
  37      0.000016452334
  38     -0.000232035411
  39     -0.000055505415
  40     -0.000030721837
  41     -0.000136536501
  42      0.000041349390
  43      0.000000815156
  44     -0.000004745947
  45      0.000008832757
  46     -0.000006890460
  47      0.000142407156
  48     -0.000156323675
  49      0.000003915610
  50      0.000014325085
  51     -0.000017761172
  52      0.000248197584
  53     -0.000048651404
  54      0.000027266917
  55      0.000141614266
  56      0.000053749816
 Ene=   0.15726728810983E+01
 Spin= Alpha
 Occup=    0.000000
   1     -0.000052722027
   2      0.000589566698
   3      0.001799606974
   4      0.001294004528
   5     -0.039125888365
   6     -0.035023672389
   7      0.009668958888
   8     -0.289851850323
   9     -0.261552835560
  10      0.081762185935
  11      0.018673840861
  12      0.011532113105
  13      0.043200180271
  14      0.037932201657
  15      0.000121708323
  16     -0.001065446095
  17      0.003837667053
  18      0.000970695455
  19     -0.019323372800
  20     -0.016355317248
  21     -0.004473886196
  22      0.067979237661
  23      0.064139599039
  24      0.009506720736
  25     -0.002272743964
  26      0.001053725325
  27      0.005936730889
  28     -0.005501478412
  29      0.018316154768
  30     -0.140877852666
  31      0.402810121131
  32     -0.016308393645
  33     -0.000186076757
  34     -0.009978554720
  35      0.098268761067
  36     -0.043919334450
  37     -0.071223051766
  38     -0.018484032374
  39      0.013934698619
  40     -0.006250321209
  41     -0.006395096204
  42     -0.005483585555
  43     -0.018730953503
  44      0.144094910612
  45     -0.410712242203
  46      0.016094607429
  47     -0.008053021097
  48      0.001432648865
  49     -0.091650876820
  50     -0.082385021343
  51     -0.044216538568
  52     -0.014062353487
  53     -0.006568911685
  54      0.002646709815
  55     -0.012988600372
  56      0.012268095245
 Ene=   0.15737389847972E+01
 Spin= Alpha
 Occup=    0.000000
   1     -0.000009317642
   2      0.000121298429
   3      0.000450628626
   4      0.000613670992
   5     -0.012318061611
   6     -0.016290814901
   7      0.005814812030
   8     -0.118435503108
   9     -0.092345336800
  10     -0.521425919768
  11      0.138775498486
  12     -0.059149674431
  13     -0.294136779019
  14     -0.122720797702
  15     -0.000045130353
  16      0.000311401028
  17     -0.000630571532
  18     -0.000053231436
  19      0.003207453550
  20     -0.017993198059
  21     -0.001998231532
  22      0.055697283571
  23     -0.008074952460
  24     -0.061913616402
  25     -0.036252044488
  26     -0.008760949997
  27     -0.037537647567
  28      0.027668930609
  29      0.007037690695
  30     -0.054253250999
  31      0.155577762382
  32     -0.004518402770
  33     -0.040535043884
  34      0.041181297949
  35      0.040639915457
  36     -0.119116867774
  37      0.085740139588
  38      0.123918207128
  39     -0.061742190581
  40      0.011308129653
  41      0.069185760977
  42      0.062581036408
  43     -0.007067148191
  44      0.054466904583
  45     -0.155959093015
  46      0.005172379729
  47      0.025987926627
  48     -0.032208086507
  49     -0.038131071796
  50      0.053645091322
  51     -0.110427673689
  52      0.085952604419
  53      0.068188925524
  54      0.014553528007
  55      0.051754904866
  56     -0.055718490545
 Ene=   0.15743038909500E+01
 Spin= Alpha
 Occup=    0.000000
   1     -0.000024602260
   2      0.000338011373
   3      0.000862482570
   4      0.000084718796
   5     -0.011666297725
   6     -0.003451172576
   7      0.000289141685
   8     -0.052156334059
   9     -0.064252186170
  10     -0.037665833174
  11     -0.139670035880
  12     -0.008868518348
  13     -0.030962572772
  14      0.134872063124
  15      0.000092688083
  16     -0.000771281293
  17      0.002365118703
  18      0.000454479211
  19     -0.016328049444
  20      0.010240486147
  21     -0.000208831098
  22     -0.020162595574
  23      0.051656608603
  24     -0.003558968737
  25      0.042049318058
  26      0.000926661376
  27      0.000491072112
  28     -0.039513542476
  29      0.003769903553
  30     -0.028975034801
  31      0.082975232092
  32     -0.003515804496
  33      0.003050194428
  34     -0.005381020085
  35      0.020692545271
  36     -0.007469338387
  37     -0.015979840013
  38     -0.017195586602
  39     -0.007528527274
  40     -0.003308651953
  41     -0.009747482858
  42      0.007733114076
  43     -0.003999862561
  44      0.030745981552
  45     -0.087312356105
  46      0.003173748509
  47      0.007830505261
  48     -0.010264975805
  49     -0.019693249664
  50      0.001509657348
  51     -0.031079364675
  52      0.031427403191
  53      0.000745738557
  54      0.004792500155
  55      0.017215548969
  56      0.001974060842
 Ene=   0.15746062886415E+01
 Spin= Alpha
 Occup=    0.000000
   1      0.000009389936
   2      0.000027806300
   3      0.000192339108
   4     -0.000101140546
   5      0.000220917423
   6      0.000131458507
   7     -0.001054622268
   8      0.001303024878
   9      0.001366236071
  10      0.000986896735
  11      0.001272094619
  12      0.000234689320
  13      0.000571212039
  14     -0.001376275260
  15      0.000046495459
  16     -0.000366502676
  17      0.001070122121
  18      0.000002681170
  19      0.000224945912
  20     -0.000049311062
  21     -0.000314881834
  22     -0.000029187989
  23     -0.000687056641
  24      0.000115828274
  25     -0.000400961310
  26     -0.000015734692
  27      0.000014442337
  28      0.000396306963
  29     -0.000125489524
  30      0.000965785363
  31     -0.002698588205
  32     -0.000018478692
  33     -0.000092821781
  34     -0.000084286028
  35     -0.000332804923
  36      0.000658035972
  37      0.000494727946
  38      0.000050485389
  39      0.000127317072
  40      0.000075033165
  41      0.000023449269