[Molden Format]
[Title]
generated by TRESC, real part2 of MOs of job CO3
 
[Atoms] AU
 C   1   6    0.3364484192    5.8882927452    0.3891081484
 O   2   8    2.6974300312    5.9862747024    0.4085979628
 O   3   8   -0.7714112401    7.4618585764    1.8371371576
 O   4   8   -0.6184572465    4.2284969646   -1.0743142370
[GTO]
  1 0
 s  5 1.0
     1238.4016938000        0.0059599745
      186.2900499200        0.0422621111
       42.2511763500        0.1866575214
       11.6765579300        0.4675815865
        3.5930506500        0.4422897287
 s  1 1.0
        0.4024514700        1.0000000000
 s  1 1.0
        0.1309018300        1.0000000000
 p  3 1.0
        9.4680970600        0.0570294585
        2.0103545100        0.3130471495
        0.5477100500        0.7605135301
 p  1 1.0
        0.1526861400        1.0000000000
 d  1 1.0
        0.8000000000        1.0000000000
 
  2 0
 s  5 1.0
     2266.1767785000        0.0060711540
      340.8701019100        0.0417308970
       77.3631351700        0.1850777598
       21.4796449400        0.4668774046
        6.6589433100        0.4435718061
 s  1 1.0
        0.8097597600        1.0000000000
 s  1 1.0
        0.2553077200        1.0000000000
 p  3 1.0
       17.7215043200        0.0628680198
        3.8635505400        0.3334973703
        1.0480920900        0.7412421661
 p  1 1.0
        0.2764154400        1.0000000000
 d  1 1.0
        1.2000000000        1.0000000000
 
  3 0
 s  5 1.0
     2266.1767785000        0.0060711540
      340.8701019100        0.0417308970
       77.3631351700        0.1850777598
       21.4796449400        0.4668774046
        6.6589433100        0.4435718061
 s  1 1.0
        0.8097597600        1.0000000000
 s  1 1.0
        0.2553077200        1.0000000000
 p  3 1.0
       17.7215043200        0.0628680198
        3.8635505400        0.3334973703
        1.0480920900        0.7412421661
 p  1 1.0
        0.2764154400        1.0000000000
 d  1 1.0
        1.2000000000        1.0000000000
 
  4 0
 s  5 1.0
     2266.1767785000        0.0060711540
      340.8701019100        0.0417308970
       77.3631351700        0.1850777598
       21.4796449400        0.4668774046
        6.6589433100        0.4435718061
 s  1 1.0
        0.8097597600        1.0000000000
 s  1 1.0
        0.2553077200        1.0000000000
 p  3 1.0
       17.7215043200        0.0628680198
        3.8635505400        0.3334973703
        1.0480920900        0.7412421661
 p  1 1.0
        0.2764154400        1.0000000000
 d  1 1.0
        1.2000000000        1.0000000000
 
[5D]
[7F]
[9G]
[MO]
 Ene=   0.99805942456929E+00
 Spin= Alpha
 Occup=    0.000000
   1     -0.000008680936
   2     -0.000218900124
   3      0.000052724797
   4     -0.000114266164
   5      0.000069795335
   6      0.000056946496
   7      0.000393622954
   8      0.001526318227
   9      0.001481836795
  10      0.000128381275
  11     -0.000261399390
  12     -0.000012558663
  13     -0.000191972342
  14     -0.000317596041
  15     -0.000118019162
  16      0.000575753963
  17     -0.000638709516
  18      0.000608594328
  19      0.002328417987
  20      0.002399072829
  21     -0.000842394939
  22     -0.003149205722
  23     -0.003231349590
  24      0.000001141012
  25     -0.000032982423
  26     -0.000006680358
  27     -0.000006167008
  28     -0.000026446023
  29      0.000353853880
  30     -0.001699044248
  31      0.000557834941
  32      0.000557689404
  33     -0.001301402168
  34     -0.001145572671
  35     -0.000402338805
  36      0.001790728393
  37      0.001541670770
  38      0.000059932427
  39      0.000028747651
  40      0.000010528436
  41     -0.000113591162
  42      0.000031488334
  43     -0.000327413420
  44      0.001599236212
  45     -0.000377720474
  46     -0.000447563787
  47     -0.001110512902
  48     -0.001206320343
  49     -0.000311981492
  50      0.001624151592
  51      0.001694736297
  52     -0.000078992862
  53      0.000072595293
  54     -0.000035993712
  55      0.000135195159
  56      0.000095531518
 Ene=   0.10079583611946E+01
 Spin= Alpha
 Occup=    0.000000
   1     -0.000006191646
   2      0.000095220894
   3      0.000106023840
   4      0.000012026985
   5     -0.000981498029
   6     -0.000993161807
   7      0.000019386085
   8      0.001784971716
   9      0.002877348018
  10      0.001745815414
  11      0.001288183629
  12      0.000298093910
  13      0.000864934364
  14      0.001502417197
  15      0.000001654623
  16     -0.000005336548
  17     -0.000084009433
  18      0.000171212721
  19     -0.004293817205
  20     -0.002221676151
  21     -0.000176691778
  22      0.004577177119
  23      0.001813154190
  24     -0.001189396573
  25     -0.000060355035
  26     -0.000153235412
  27     -0.000684198480
  28     -0.000086040398
  29     -0.000597445621
  30      0.002849441803
  31     -0.003423451061
  32      0.001402293351
  33     -0.023279912387
  34      0.034093389154
  35     -0.003991217822
  36      0.025235724197
  37     -0.041456630869
  38     -0.000991214954
  39     -0.000047926467
  40     -0.000403057130
  41     -0.000115551927
  42     -0.000225191475
  43      0.000603223170
  44     -0.002848303160
  45      0.003342476137
  46     -0.001683586500
  47      0.031499348341
  48     -0.026833461499
  49      0.004372195225
  50     -0.038190627223
  51      0.029232245862
  52     -0.000641505108
  53     -0.000231963320
  54      0.000190509723
  55     -0.000793393124
  56     -0.000138537932
 Ene=   0.10571739464121E+01
 Spin= Alpha
 Occup=    0.000000
   1      0.000381439269
   2     -0.006315377395
   3     -0.008722102871
   4     -0.007195259713
   5      0.172467172157
   6      0.155259244504
   7      0.034364531764
   8     -0.849830855121
   9     -0.764958023935
  10     -0.002100352840
  11     -0.170199308340
  12     -0.010090396345
  13      0.017402342960
  14     -0.188737258469
  15      0.000557713319
  16     -0.003764748072
  17      0.011228052142
  18      0.021615601480
  19     -0.433955734072
  20     -0.390743436767
  21     -0.045306920079
  22      0.870207798941
  23      0.783615200803
  24      0.000688160626
  25      0.054147667431
  26      0.002961351182
  27     -0.005437321724
  28      0.060045707653
  29      0.010342642124
  30     -0.020742311714
  31      0.395257424263
  32      0.067350559215
  33     -0.234753225187
  34     -0.210647620443
  35     -0.068272387473
  36      0.436193266382
  37      0.391263181439
  38     -0.003237277124
  39     -0.005108443474
  40      0.033820046514
  41     -0.001377916940
  42     -0.004590160696
  43     -0.011004997777
  44      0.022662235455
  45     -0.391644169558
  46     -0.049863621432
  47     -0.241707368131
  48     -0.218162170816
  49      0.037006033134
  50      0.445412709374
  51      0.402120562572
  52      0.003006210975
  53     -0.002688380897
  54     -0.034033617012
  55      0.002191219361
  56     -0.004049132887
 Ene=   0.10696988079840E+01
 Spin= Alpha
 Occup=    0.000000
   1     -0.000017409213
   2     -0.000280035483
   3      0.000779426094
   4     -0.000483808055
   5     -0.000115925276
   6     -0.000065339770
   7      0.002880498640
   8      0.000775953162
   9      0.000129161207
  10      0.000280733656
  11      0.000090642959
  12     -0.000097739234
  13     -0.000160968830
  14      0.000088570103
  15      0.000138635670
  16     -0.000802433770
  17     -0.000485215013
  18      0.000020565085
  19      0.000293277329
  20      0.000120148307
  21     -0.000600645199
  22     -0.000624797486
  23     -0.000228645743
  24     -0.000011695348
  25     -0.000018511661
  26     -0.000136171537
  27     -0.000095992481
  28     -0.000045405120
  29     -0.000270214305
  30      0.001450142139
  31     -0.001317903479
  32      0.001273386748
  33     -0.000292640734
  34      0.002537364237
  35     -0.002338268903
  36      0.000157021552
  37     -0.002808114504
  38     -0.000065617878
  39     -0.000041957024
  40     -0.000017251577
  41      0.000017508644
  42     -0.000059282801
  43     -0.000251713507
  44      0.001387453816
  45     -0.000895005828
  46      0.001383182622
  47      0.000859441862
  48     -0.002557774109
  49     -0.002451879553
  50     -0.001198904967
  51      0.002860934172
  52     -0.000085228306
  53      0.000042178205
  54      0.000017257993
  55     -0.000004396444
  56      0.000069697521
 Ene=   0.11001213716386E+01
 Spin= Alpha
 Occup=    0.000000
   1     -0.000000603979
   2      0.000013892494
   3     -0.000027639152
   4      0.000082928209
   5     -0.000970546881
   6     -0.000423440972
   7     -0.000446296330
   8      0.007358170517
   9     -0.001162653839
  10     -0.000001748318
  11      0.000950831071
  12      0.000040636425
  13     -0.000080841388
  14      0.001053285794
  15     -0.000014548987
  16      0.000090144502
  17     -0.000050198415
  18     -0.000145798196
  19      0.003710826871
  20      0.000226961054
  21      0.000361025827
  22     -0.007291085839
  23     -0.000687832120
  24     -0.000006218752
  25     -0.000243836448
  26     -0.000006649767
  27      0.000048685089
  28     -0.000491274550
  29     -0.000150237485
  30      0.000579158483
  31     -0.001944173287
  32     -0.001685485666
  33      0.002602049666
  34     -0.001102872024
  35      0.002087532628
  36     -0.004909681055
  37      0.002046818844
  38      0.000167997053
  39     -0.000001699491
  40     -0.000113604258
  41      0.000054570333
  42      0.000076691447
  43      0.000177068361
  44     -0.000732310544
  45      0.002080286323
  46      0.001285020585
  47      0.002771641612
  48     -0.000926468854
  49     -0.001375346882
  50     -0.005090356867
  51      0.001863843898
  52     -0.000159768185
  53     -0.000013196153
  54      0.000112659164
  55     -0.000071735346
  56      0.000056453733
 Ene=   0.11340584997766E+01
 Spin= Alpha
 Occup=    0.000000
   1     -0.016250676238
   2      0.228035497927
   3      0.872810961231
   4     -0.229130230607
   5     -0.009831263925
   6     -0.001965611407
   7      0.917560984889
   8      0.042198537051
   9      0.009887657290
  10      0.085697654663
  11     -0.006577001063
  12      0.128719598778
  13     -0.175246559294
  14     -0.013935938134
  15     -0.003951913236
  16      0.000495151215
  17     -0.537591012377
  18      0.087038654352
  19     -0.002315309862
  20     -0.005604975305
  21     -0.263779505812
  22     -0.002098737515
  23      0.007510993051
  24      0.018014506699
  25      0.002385321456
  26     -0.048333611630
  27     -0.020943490086
  28     -0.000544821697
  29     -0.066352619803
  30      0.449116218095
  31     -0.709307228607
  32      0.553106744946
  33      0.159652485388
  34      0.126744242480
  35     -1.050066060890
  36     -0.048503754282
  37     -0.011805819479
  38     -0.012686620168
  39     -0.027853659926
  40     -0.007902858879
  41      0.025468692414
  42     -0.029614822402
  43     -0.065969662765
  44      0.446204584938
  45     -0.699924462534
  46      0.542806961041
  47     -0.103894033317
  48     -0.109832553911
  49     -1.018641949676
  50     -0.049884914110
  51     -0.014037675589
  52     -0.011220237794
  53      0.027997664333
  54     -0.004324368005
  55      0.018460920743
  56      0.032246847541
 Ene=   0.11553230611990E+01
 Spin= Alpha
 Occup=    0.000000
   1     -0.000266372331
   2      0.003123932995
   3      0.015485177182
   4     -0.002388053982
   5      0.025684891758
   6      0.023293971170
   7      0.008347240438
   8     -0.010617582750
   9     -0.011860701093
  10     -0.000199346489
  11     -0.045867976245
  12     -0.001870471316
  13      0.002999170091
  14     -0.050967513503
  15     -0.000559481284
  16      0.003619105889
  17     -0.011939997585
  18     -0.006336578713
  19      0.149930735219
  20      0.134270342655
  21      0.010801748412
  22     -0.221852299846
  23     -0.198379427078
  24      0.000042527291
  25     -0.014334659436
  26     -0.001257872522
  27      0.001455026780
  28     -0.015961594661
  29     -0.008482049811
  30      0.056120741198
  31     -0.086073162840
  32     -0.301855888881
  33     -0.154311215424
  34     -0.137329900614
  35      0.379327910368
  36      0.235368545270
  37      0.208670307009
  38      0.010496889073
  39      0.010377835556
  40      0.014748550405
  41     -0.021673378689
  42      0.010732027017
  43      0.006043872423
  44     -0.040840081733
  45      0.061381993583
  46      0.323768494845
  47     -0.138651311981
  48     -0.128813304287
  49     -0.417385523353
  50      0.208679427153
  51      0.195341384097
  52     -0.010016260859
  53      0.012627308793
  54     -0.013696020581
  55      0.019531132178
  56      0.014837271143
 Ene=   0.11578464109379E+01
 Spin= Alpha
 Occup=    0.000000
   1      0.000120017821
   2     -0.000949658349
   3     -0.005377571947
   4      0.000074869570
   5     -0.000065089490
   6     -0.000034638353
   7     -0.001980209786
   8      0.000138278935
   9     -0.000201231985
  10     -0.000369260448
  11      0.000089486122
  12      0.000140976761
  13      0.000374723610
  14      0.000137944012
  15      0.000443080049
  16     -0.002733254390
  17      0.005628198372
  18     -0.000756291283
  19     -0.000136138115
  20     -0.000378937155
  21     -0.000253661259
  22      0.000130588587
  23      0.000544082225
  24      0.000039463345
  25      0.000021787404
  26      0.000153392118
  27     -0.000023161046
  28      0.000012381169
  29      0.000377513475
  30     -0.002367990489
  31      0.003995042051
  32      0.000066482162
  33      0.000619114588
  34     -0.001000903267
  35      0.000802719786
  36     -0.001465122846
  37      0.000465120826
  38     -0.000003350254
  39      0.000042547730
  40      0.000020043889
  41      0.000084361337
  42      0.000065401294
  43      0.000353938318
  44     -0.002196347348
  45      0.003712781704
  46     -0.000983959869
  47      0.000001572117
  48      0.001339533050
  49      0.002074831554
  50      0.000500815050
  51     -0.000906665976
  52      0.000018500484
  53     -0.000085237355
  54      0.000065006771
  55      0.000018002860
  56     -0.000101660374
 Ene=   0.11671873808436E+01
 Spin= Alpha
 Occup=    0.000000
   1      0.000274031471
   2     -0.004240252019
   3     -0.015894967922
   4      0.002033395381
   5     -0.000056893077
   6     -0.000114391601
   7     -0.008479633990
   8     -0.000224611585
   9      0.000079920855
  10     -0.000866996705
  11      0.000318705474
  12     -0.001535291065
  13      0.001817432012
  14      0.000417004214
  15      0.000535860610
  16     -0.003192801229
  17      0.011131551292
  18     -0.000686985724
  19     -0.000340750529
  20     -0.000271494148
  21      0.000574910454
  22      0.000436793243
  23      0.000347325694
  24     -0.000142505975
  25     -0.000005844221
  26      0.000571599642
  27      0.000121683385
  28      0.000023341732
  29      0.000987802944
  30     -0.006789700074
  31      0.012406718607
  32     -0.004302865506
  33     -0.000746997537
  34     -0.000421321330
  35      0.009231910363
  36     -0.001854627966
  37     -0.002072452093
  38      0.000040525356
  39      0.000270986183
  40      0.000052486808
  41     -0.000104258139
  42      0.000298038220
  43      0.000941858826
  44     -0.006415986522
  45      0.011802976185
  46     -0.006209545886
  47      0.001338542655
  48      0.001303130194
  49      0.011337503464
  50      0.001048950746
  51      0.000676735099
  52      0.000097108921
  53     -0.000351192226
  54      0.000132804841
  55     -0.000175242862
  56     -0.000400219527
 Ene=   0.11718204593243E+01
 Spin= Alpha
 Occup=    0.000000
   1      0.000226738861
   2     -0.002924912912
   3     -0.012284440294
   4      0.004637315672
   5     -0.042712359236
   6      0.047602108003
   7     -0.031326232910
   8      0.664710066239
   9     -0.739895899296
  10     -0.001201353189
  11      0.008236337902
  12     -0.001491929495
  13      0.003098146784
  14     -0.006946324816
  15     -0.000058122492
  16      0.000821862917
  17      0.004716460147
  18     -0.007916175759
  19      0.212679646177
  20     -0.236836539004
  21      0.017773765798
  22     -0.427119697800
  23      0.475585747028
  24     -0.000090316297
  25      0.016205831389
  26      0.001205599082
  27      0.001329080772
  28     -0.014539458428
  29      0.000959983067
  30     -0.006604640049
  31      0.011319758914
  32     -0.018573197884
  33      0.349634709694
  34     -0.392740086855
  35      0.032539093588
  36     -0.599610414573
  37      0.665991539264
  38      0.027831909946
  39     -0.009290637077
  40      0.003132232993
  41      0.015058874636
  42      0.010022657438
  43      0.000942288620
  44     -0.006462672635
  45      0.011017562031
  46     -0.019469125807
  47      0.359707629265
  48     -0.396436408650
  49      0.033342050040
  50     -0.605422812870
  51      0.674757998762
  52     -0.027776587584
  53     -0.009341133967
  54     -0.003667601869
  55     -0.016915050225
  56      0.006599738721
 Ene=   0.11958728654115E+01
 Spin= Alpha
 Occup=    0.000000
   1     -0.046292167354
   2      0.823055291283
   3      3.151390656300
   4      0.174430519377
   5      0.008560875104
   6      0.002278304071
   7      0.493827697962
   8      0.024422443102
   9      0.015536278576
  10     -0.058228527177
  11      0.000443830129
  12      0.017456132772
  13      0.096869297693
  14      0.007515145219
  15     -0.219378353868
  16      1.495832881957
  17     -3.232688164409
  18     -0.137703541882
  19     -0.007647964411
  20     -0.000591970761
  21      1.154202944998
  22      0.050940071512
  23      0.007513818491
  24     -0.017690194024
  25      0.002655819127
  26     -0.042989817565
  27      0.039575475150
  28      0.004154465810
  29     -0.139678743242
  30      0.911686230525
  31     -1.904248219377
  32     -0.059857704347
  33     -0.065375494182
  34     -0.053466586478
  35     -0.155856725681
  36      0.416023438707
  37      0.372402583436
  38      0.028073179143
  39     -0.003234039423
  40     -0.008373382578
  41     -0.046877579047
  42     -0.007067417650
  43     -0.138823285891
  44      0.904766161166
  45     -1.882196169847
  46     -0.070908280262
  47      0.058117062029
  48      0.057937656059
  49     -0.106246009586
  50     -0.418934674513
  51     -0.379789933913
  52      0.028331003868
  53      0.002323353508
  54     -0.008102260090
  55     -0.047007524557
  56     -0.000871943886
 Ene=   0.12031803092884E+01
 Spin= Alpha
 Occup=    0.000000
   1     -0.000001413597
   2      0.000028688181
   3      0.000101223585
   4     -0.000001337483
   5      0.000060417509
   6     -0.000114628950
   7      0.000048441657
   8     -0.000890151885
   9      0.001485043222
  10     -0.000001560000
  11      0.000006361563
  12      0.000006515383
  13     -0.000004747907
  14      0.000029438925
  15     -0.000005347839
  16      0.000036257431
  17     -0.000088429833
  18     -0.000005965127
  19     -0.000105579660
  20      0.000812221104
  21      0.000027669732
  22      0.000243339018
  23     -0.001418396618
  24     -0.000000232877
  25     -0.000071262865
  26     -0.000004759385
  27      0.000003519214
  28     -0.000022022096
  29     -0.000028565432
  30      0.000158409004
  31     -0.000330782186
  32     -0.000454961326
  33     -0.000709165869
  34      0.000516726580
  35      0.000522687202
  36      0.001169153250
  37     -0.000918411311
  38     -0.000032670443
  39      0.000024505219
  40      0.000001527584
  41     -0.000054642552
  42      0.000002480602
  43      0.000020171296
  44     -0.000099822597
  45      0.000202504361
  46      0.000523101092
  47     -0.000698284309
  48      0.000565996890
  49     -0.000648895882
  50      0.001125865531
  51     -0.000995800623
  52      0.000035313011
  53      0.000026020716
  54      0.000000001465
  55      0.000052429350
  56      0.000012481521
 Ene=   0.15302253754344E+01
 Spin= Alpha
 Occup=    0.000000
   1      0.000000876953
   2     -0.000009320216
   3     -0.000021899203
   4      0.000021188461
   5     -0.000043399056
   6     -0.000016088987
   7      0.000156979717
   8     -0.000444344054
   9     -0.000078543180
  10     -0.000012781276
  11      0.000057869694
  12     -0.000003979369
  13     -0.000029512405
  14      0.000364640268
  15     -0.000008196348
  16      0.000061489810
  17     -0.000162623347
  18      0.000002528352
  19     -0.000085956459
  20     -0.000048535769
  21      0.000045366548
  22      0.000075672122
  23      0.000033389707
  24     -0.000003131649
  25     -0.000041515643
  26     -0.000002036348
  27      0.000010709832
  28     -0.000089938380
  29     -0.000009672559
  30     -0.000011621598
  31      0.000389288270
  32     -0.000068215194
  33     -0.000146618807
  34      0.000216765543
  35      0.000092983609
  36      0.000086368664
  37     -0.000390898405
  38     -0.000063906340
  39     -0.000011645664
  40     -0.000013120980
  41      0.000012085920
  42     -0.000032145476
  43      0.000022028299
  44     -0.000079613637
  45     -0.000173979590
  46      0.000099981563
  47     -0.000163171972
  48      0.000225279192
  49     -0.000138169893
  50      0.000168778625
  51     -0.000345012850
  52      0.000066736565
  53     -0.000012894251
  54      0.000006449916
  55     -0.000002693516
  56     -0.000036480050
 Ene=   0.15346349573945E+01
 Spin= Alpha
 Occup=    0.000000
   1      0.016030089712
   2     -0.180174977136
   3     -0.442678437608
   4      0.343851162531
   5      0.009748675932
   6     -0.001292106972
   7      2.482131604141
   8      0.067404659452
   9     -0.012098120424
  10     -0.090410046993
  11      0.011178585922
  12     -0.182045123800
  13      0.194315881106
  14      0.021524390824
  15     -0.132334936118
  16      1.022247221298
  17     -2.844251414499
  18     -0.041544174113
  19     -0.004135128835
  20     -0.002436710744
  21      0.881671578037
  22      0.044909095034
  23      0.015833322582
  24     -0.029584064137
  25      0.000762692192
  26      0.005134036752
  27      0.050061808038
  28      0.003404901147
  29      0.105452030139
  30     -0.803144036217
  31      1.982534980806
  32      0.199941291834
  33      0.111994159246
  34      0.095561628408
  35     -0.294391225105
  36     -0.710387905916
  37     -0.631442124274
  38      0.002979899265
  39      0.018870688998
  40     -0.038749708170
  41      0.001204369189
  42      0.019739861878
  43      0.100998969097
  44     -0.768857924655
  45      1.884944210168
  46      0.214084239753
  47     -0.097188811224
  48     -0.092905809789
  49     -0.383915970454
  50      0.669479620256
  51      0.611796312743
  52      0.003193803103
  53     -0.014819506728
  54     -0.039156574254
  55      0.004478725349
  56     -0.017545298748
 Ene=   0.15662492065412E+01
 Spin= Alpha
 Occup=    0.000000
   1      0.000000927707
   2     -0.000004987684
   3     -0.000000410239
   4     -0.000015717677
   5     -0.000006349232
   6     -0.000002984965
   7      0.000139950098
   8     -0.000021699730
   9     -0.000045247368
  10      0.001192392748
  11     -0.000111983799
  12      0.000057279564
  13      0.000939555833
  14      0.000180484458
  15      0.000030495444
  16     -0.000149726045
  17     -0.000005198320
  18     -0.000053142248
  19     -0.000004469229
  20     -0.000003568878
  21      0.000087546902
  22     -0.000023874051
  23      0.000047912327
  24      0.000156125185
  25      0.000028396002
  26      0.000001365654
  27      0.000063592370
  28     -0.000025466901
  29     -0.000014974044
  30      0.000062023095
  31      0.000051635150
  32      0.000031973956
  33      0.000040559104
  34      0.000026966885
  35      0.000007567497
  36      0.000249062950
  37     -0.000375926797
  38     -0.000258954082
  39      0.000180925357
  40      0.000006846619
  41     -0.000180916415
  42     -0.000131179887
  43     -0.000019026900
  44      0.000095007460
  45     -0.000051738933
  46      0.000044645637
  47     -0.000026179295
  48     -0.000040760700
  49     -0.000005401659
  50     -0.000256035542
  51      0.000349741404
  52     -0.000228896129
  53     -0.000182313087
  54     -0.000001214804
  55     -0.000179166091
  56      0.000106610529
 Ene=   0.15726728810983E+01
 Spin= Alpha
 Occup=    0.000000
   1     -0.000519663563
   2      0.005500976189
   3      0.016572344201
   4      0.011734262471
   5     -0.377689643258
   6     -0.339658781729
   7      0.090410377357
   8     -2.807223542495
   9     -2.527365119029
  10      0.104291340021
  11      0.241350447213
  12      0.028131308836
  13      0.028009432619
  14      0.289274975173
  15      0.001836544720
  16     -0.014386941553
  17      0.043630396158
  18      0.009068298344
  19     -0.182529818522
  20     -0.163025368063
  21     -0.045097892806
  22      0.669809636319
  23      0.607202825547
  24      0.011680664617
  25     -0.035671561515
  26     -0.000346887152
  27      0.009877783581
  28     -0.043437046935
  29      0.176704414602
  30     -1.360118778975
  31      3.893727669190
  32     -0.156128810520
  33     -0.044659656808
  34     -0.048686049907
  35      0.955255288497
  36     -0.545013783596
  37     -0.553789667232
  38     -0.033371454151
  39      0.049116681220
  40     -0.045101479882
  41      0.016508698344
  42      0.029228736704
  43     -0.181511157502
  44      1.395762714569
  45     -3.975721381557
  46      0.153922345280
  47     -0.040242472473
  48     -0.029089735616
  49     -0.889267285171
  50     -0.683313035535
  51     -0.554594554011
  52     -0.005782713965
  53      0.020754400279
  54      0.044952490953
  55     -0.046373880453
  56      0.046608394765
 Ene=   0.15737389847972E+01
 Spin= Alpha
 Occup=    0.000000
   1     -0.000074331273
   2      0.000766706364
   3      0.002407274693
   4      0.002104653064
   5     -0.059915424393
   6     -0.059456829196
   7      0.017059540062
   8     -0.474130755798
   9     -0.411731048347
  10     -0.490068028428
  11      0.175947697035
  12     -0.053201727345
  13     -0.279651856178
  14     -0.091940529189
  15      0.000219099409
  16     -0.001709097827
  17      0.005278073042
  18      0.001153612767
  19     -0.019293075017
  20     -0.039310339007
  21     -0.007907332395
  22      0.142138499196
  23      0.066863795347
  24     -0.058336603369
  25     -0.042884298280
  26     -0.008633639862
  27     -0.035224232308
  28      0.024141013118
  29      0.029458693085
  30     -0.226699447931
  31      0.648622071461
  32     -0.024765084449
  33     -0.045122532706
  34      0.034197299849
  35      0.161825646673
  36     -0.185822824994
  37      0.012683648776
  38      0.117377621220
  39     -0.052941822396
  40      0.005538706819
  41      0.069749203413
  42      0.064150968763
  43     -0.030116218232
  44      0.231527024605
  45     -0.659479810350
  46      0.024978205170
  47      0.019675323558
  48     -0.033999383894
  49     -0.150760607338
  50     -0.036643164456
  51     -0.176951217530
  52      0.080303676805
  53      0.068928642231
  54      0.019543092573
  55      0.043227806948
  56     -0.048070968810
 Ene=   0.15743038909500E+01
 Spin= Alpha
 Occup=    0.000000
   1      0.000062651544
   2     -0.000648027577
   3     -0.001555918583
   4      0.000285512314
   5      0.023784704600
   6     -0.008458226340
   7      0.007556724893
   8      0.030412654311
   9      0.100509907573
  10      0.207436978904
  11      0.606865677686
  12      0.044595674760
  13      0.156669955248
  14     -0.549624901275
  15     -0.000490883471
  16      0.003794633029
  17     -0.010756806986
  18     -0.002111718292
  19      0.056691313435
  20     -0.054431061930
  21     -0.000680507287
  22      0.130848072136
  23     -0.177477594071
  24      0.020664317741
  25     -0.180500657311
  26     -0.003230652656
  27      0.001530114714
  28      0.164548026105
  29     -0.003853048412
  30      0.029677412047
  31     -0.085955644213
  32      0.004808799890
  33     -0.012644594939
  34      0.017117125268
  35     -0.023520545938
  36      0.000791140140
  37      0.021856252327
  38      0.062522326053
  39      0.040325367784
  40      0.009740829404
  41      0.037726426857
  42     -0.035880403295
  43      0.004614399124
  44     -0.035495997963
  45      0.100342275854
  46     -0.001623462301
  47     -0.038676759351
  48      0.044129235622
  49      0.022183206432
  50     -0.059466671763
  51      0.101794544433
  52     -0.141703838936
  53     -0.006438110170
  54     -0.018932108411
  55     -0.080953194264
  56     -0.000586063508
 Ene=   0.15746062886415E+01
 Spin= Alpha
 Occup=    0.000000
   1      0.000004000975
   2     -0.000029622990
   3     -0.000082787148
   4     -0.000089835491
   5      0.002174999815
   6      0.002629936238
   7     -0.000798189798
   8      0.019678705812
   9      0.016059106321
  10     -0.002809647538
  11     -0.015518230699
  12     -0.000892338926
  13     -0.002224397866
  14      0.010495799911
  15     -0.000003095859
  16      0.000025891820
  17     -0.000101734763
  18     -0.000026752722
  19      0.000032743980
  20      0.002409624229
  21      0.000356193469
  22     -0.007807407208
  23     -0.000371315329
  24     -0.000244221111
  25      0.004357997763
  26      0.000114735218
  27      0.000072219607
  28     -0.003392892019
  29     -0.001192771072
  30      0.009176513265
  31     -0.026252376080
  32      0.001109770976
  33      0.000775944584
  34     -0.000224292758
  35     -0.006487300623
  36      0.004358068184
  37      0.003008603878
  38     -0.001720473844
  39     -0.000953571152
  40      0.000054241266
  41     -0.001244353477