[Molden Format]
[Title]
generated by TRESC, real part1 of MOs of job CO3
 
[Atoms] AU
 C   1   6    0.3364484192    5.8882927452    0.3891081484
 O   2   8    2.6974300312    5.9862747024    0.4085979628
 O   3   8   -0.7714112401    7.4618585764    1.8371371576
 O   4   8   -0.6184572465    4.2284969646   -1.0743142370
[GTO]
  1 0
 s  5 1.0
     1238.4016938000        0.0059599745
      186.2900499200        0.0422621111
       42.2511763500        0.1866575214
       11.6765579300        0.4675815865
        3.5930506500        0.4422897287
 s  1 1.0
        0.4024514700        1.0000000000
 s  1 1.0
        0.1309018300        1.0000000000
 p  3 1.0
        9.4680970600        0.0570294585
        2.0103545100        0.3130471495
        0.5477100500        0.7605135301
 p  1 1.0
        0.1526861400        1.0000000000
 d  1 1.0
        0.8000000000        1.0000000000
 
  2 0
 s  5 1.0
     2266.1767785000        0.0060711540
      340.8701019100        0.0417308970
       77.3631351700        0.1850777598
       21.4796449400        0.4668774046
        6.6589433100        0.4435718061
 s  1 1.0
        0.8097597600        1.0000000000
 s  1 1.0
        0.2553077200        1.0000000000
 p  3 1.0
       17.7215043200        0.0628680198
        3.8635505400        0.3334973703
        1.0480920900        0.7412421661
 p  1 1.0
        0.2764154400        1.0000000000
 d  1 1.0
        1.2000000000        1.0000000000
 
  3 0
 s  5 1.0
     2266.1767785000        0.0060711540
      340.8701019100        0.0417308970
       77.3631351700        0.1850777598
       21.4796449400        0.4668774046
        6.6589433100        0.4435718061
 s  1 1.0
        0.8097597600        1.0000000000
 s  1 1.0
        0.2553077200        1.0000000000
 p  3 1.0
       17.7215043200        0.0628680198
        3.8635505400        0.3334973703
        1.0480920900        0.7412421661
 p  1 1.0
        0.2764154400        1.0000000000
 d  1 1.0
        1.2000000000        1.0000000000
 
  4 0
 s  5 1.0
     2266.1767785000        0.0060711540
      340.8701019100        0.0417308970
       77.3631351700        0.1850777598
       21.4796449400        0.4668774046
        6.6589433100        0.4435718061
 s  1 1.0
        0.8097597600        1.0000000000
 s  1 1.0
        0.2553077200        1.0000000000
 p  3 1.0
       17.7215043200        0.0628680198
        3.8635505400        0.3334973703
        1.0480920900        0.7412421661
 p  1 1.0
        0.2764154400        1.0000000000
 d  1 1.0
        1.2000000000        1.0000000000
 
[5D]
[7F]
[9G]
[MO]
 Ene=  -0.19858645911888E+02
 Spin= Alpha
 Occup=    1.000000
   1     -0.000036432990
   2     -0.000067204572
   3     -0.001335752602
   4      0.000017678889
   5      0.000000886465
   6      0.000000036620
   7     -0.001542341762
   8     -0.000064273605
   9     -0.000013205762
  10     -0.000109055661
  11      0.000005726304
  12     -0.000061388166
  13      0.000201234161
  14      0.000017433503
  15     -0.118575847752
  16     -0.005288600006
  17      0.003927701069
  18      0.000361138095
  19      0.000015610072
  20      0.000002293709
  21     -0.000898513349
  22     -0.000037540830
  23     -0.000007090355
  24      0.000011868942
  25      0.000000204641
  26     -0.000029203643
  27     -0.000014006905
  28     -0.000001578219
  29      0.000107353123
  30      0.000136086709
  31     -0.000219363625
  32      0.000002218255
  33     -0.000046712604
  34     -0.000041897866
  35      0.000200603048
  36      0.000176023464
  37      0.000152769042
  38      0.000002998411
  39     -0.000024745554
  40     -0.000028175473
  41      0.000002408677
  42     -0.000028554147
  43      0.000127469412
  44      0.000136582240
  45     -0.000220838893
  46     -0.000002186238
  47      0.000046424667
  48      0.000041955900
  49      0.000217082488
  50     -0.000159386321
  51     -0.000149270039
  52      0.000003516488
  53      0.000027087435
  54     -0.000025668998
  55     -0.000002277435
  56      0.000028940874
 Ene=  -0.19829503180810E+02
 Spin= Alpha
 Occup=    0.000000
   1     -0.000000008159
   2     -0.000000018127
   3     -0.000000309546
   4      0.000000001913
   5     -0.000000001706
   6      0.000000048105
   7     -0.000000389029
   8      0.000000241955
   9      0.000000170558
  10     -0.000000024655
  11     -0.000000051975
  12     -0.000000017131
  13      0.000000045283
  14      0.000000041072
  15     -0.000028400274
  16     -0.000001268895
  17      0.000000944264
  18      0.000000085945
  19      0.000000016486
  20     -0.000000231583
  21     -0.000000216855
  22     -0.000000062668
  23      0.000000076893
  24      0.000000006991
  25      0.000000335082
  26     -0.000000012037
  27     -0.000000017365
  28      0.000000331583
  29      0.000010722817
  30      0.000000542775
  31     -0.000000524986
  32      0.000000036927
  33     -0.000000031479
  34     -0.000000031957
  35     -0.000000054132
  36      0.000000108735
  37      0.000000114104
  38      0.000000009519
  39      0.000000026210
  40     -0.000000013411
  41     -0.000000016417
  42     -0.000000012731
  43     -0.000009484195
  44     -0.000000427641
  45      0.000000385345
  46     -0.000000033634
  47     -0.000000009018
  48     -0.000000011539
  49      0.000000146908
  50      0.000000030235
  51      0.000000037877
  52     -0.000000009678
  53      0.000000039485
  54      0.000000001810
  55      0.000000016281
  56      0.000000003053
 Ene=  -0.19800860549395E+02
 Spin= Alpha
 Occup=    0.000000
   1     -0.000000142992
   2     -0.000000415178
   3     -0.000005084568
   4      0.000000052125
   5     -0.000000043578
   6     -0.000000021472
   7      0.000003410533
   8     -0.000005269770
   9     -0.000004863021
  10      0.000000107780
  11     -0.000000498351
  12      0.000000558113
  13     -0.000000317163
  14     -0.000000599838
  15     -0.000002562305
  16      0.000000515674
  17     -0.000001279862
  18     -0.000000221748
  19     -0.000000097966
  20     -0.000000066790
  21      0.000000469875
  22      0.000001130111
  23      0.000001008804
  24      0.000000000689
  25     -0.000000139615
  26     -0.000000135711
  27      0.000000040959
  28     -0.000000119771
  29     -0.000511453540
  30     -0.000022077633
  31      0.000017336971
  32     -0.000000863401
  33      0.000000998460
  34      0.000000802419
  35      0.000001979214
  36     -0.000002646307
  37     -0.000002377331
  38      0.000000065992
  39      0.000000399074
  40      0.000000104839
  41      0.000000113419
  42      0.000000170218
  43     -0.000017887488
  44     -0.000000193743
  45     -0.000001922781
  46      0.000000160134
  47     -0.000000014901
  48     -0.000000028141
  49     -0.000001614124
  50      0.000000167019
  51      0.000000204630
  52      0.000000131986
  53     -0.000000169005
  54      0.000000112365
  55     -0.000000209465
  56     -0.000000129926
 Ene=  -0.19796213672908E+02
 Spin= Alpha
 Occup=    0.000000
   1      0.000000146142
   2      0.000000433920
   3      0.000005220825
   4     -0.000000051304
   5     -0.000000054780
   6     -0.000000031236
   7     -0.000002978735
   8     -0.000005937170
   9     -0.000005264155
  10     -0.000000132160
  11     -0.000000474312
  12     -0.000000621670
  13      0.000000427354
  14     -0.000000565412
  15      0.000002568092
  16     -0.000000531238
  17      0.000001325967
  18      0.000000235650
  19     -0.000000086371
  20     -0.000000067426
  21     -0.000000592738
  22      0.000001172202
  23      0.000001074000
  24     -0.000000002285
  25     -0.000000162202
  26      0.000000124013
  27     -0.000000018330
  28     -0.000000137724
  29      0.000007516657
  30     -0.000000282440
  31      0.000002406233
  32     -0.000000186647
  33     -0.000000008322
  34     -0.000000015213
  35      0.000001719531
  36      0.000000259524
  37      0.000000186952
  38     -0.000000136897
  39     -0.000000148387
  40     -0.000000128946
  41      0.000000245338
  42     -0.000000095366
  43      0.000536192870
  44      0.000023174543
  45     -0.000018252868
  46      0.000000800649
  47      0.000001104800
  48      0.000000871283
  49     -0.000001840949
  50     -0.000002934586
  51     -0.000002535758
  52     -0.000000063838
  53      0.000000395269
  54     -0.000000073796
  55     -0.000000143049
  56      0.000000154158
 Ene=  -0.19784870340495E+02
 Spin= Alpha
 Occup=    1.000000
   1     -0.000180745442
   2     -0.000538308017
   3     -0.006376592038
   4      0.000045219725
   5     -0.000079926155
   6     -0.000073009389
   7      0.004428101238
   8     -0.007377452514
   9     -0.006765577188
  10      0.000187333408
  11     -0.000687488137
  12      0.000726278894
  13     -0.000433473655
  14     -0.000767293850
  15     -0.000863217450
  16      0.000747557632
  17     -0.001684369486
  18     -0.000280821841
  19     -0.000140760037
  20     -0.000118670844
  21      0.000562771938
  22      0.001577743612
  23      0.001403236155
  24     -0.000014381550
  25     -0.000154408917
  26     -0.000169092295
  27      0.000070668794
  28     -0.000173435323
  29     -0.678787796039
  30     -0.029340397189
  31      0.023141296818
  32     -0.000952104896
  33      0.001314326607
  34      0.001210666122
  35      0.002613489795
  36     -0.003501390375
  37     -0.003226867846
  38     -0.000046458957
  39      0.000199879277
  40     -0.000049160865
  41      0.000077489265
  42      0.000225814552
  43      0.012053133579
  44      0.001292055200
  45     -0.003751551722
  46      0.000249032373
  47      0.000051569286
  48      0.000038355858
  49     -0.002293409140
  50      0.000024239233
  51      0.000091009036
  52      0.000150017158
  53     -0.000165656593
  54      0.000125042477
  55     -0.000275039758
  56     -0.000198386500
 Ene=  -0.19781052119389E+02
 Spin= Alpha
 Occup=    1.000000
   1      0.000268855621
   2      0.000813031152
   3      0.009544111533
   4     -0.000060196194
   5     -0.000123851071
   6     -0.000109701665
   7     -0.005614726919
   8     -0.010804293357
   9     -0.009544400311
  10     -0.000304085041
  11     -0.000849750187
  12     -0.001176164380
  13      0.000833627516
  14     -0.000934644517
  15      0.001221235398
  16     -0.001120471690
  17      0.002543361415
  18      0.000437184653
  19     -0.000162358954
  20     -0.000158359641
  21     -0.001058705283
  22      0.002135412992
  23      0.001948935386
  24      0.000014854148
  25     -0.000239360639
  26      0.000226826599
  27     -0.000059204479
  28     -0.000262285614
  29      0.017451194435
  30     -0.000361616616
  31      0.004252070422
  32     -0.000316734343
  33     -0.000023938601
  34     -0.000011705318
  35      0.003173220871
  36      0.000492804841
  37      0.000346973764
  38     -0.000220510002
  39     -0.000223228824
  40     -0.000201607995
  41      0.000439153880
  42     -0.000226576918
  43      0.981233273327
  44      0.042401500542
  45     -0.033313300038
  46      0.001177233940
  47      0.002004590734
  48      0.001766402933
  49     -0.003172905593
  50     -0.005370507111
  51     -0.004732157863
  52      0.000059869768
  53      0.000278744849
  54      0.000090111247
  55     -0.000140496823
  56      0.000305062262
 Ene=  -0.10838670996689E+02
 Spin= Alpha
 Occup=    1.000000
   1      0.192878118981
   2      0.009530829136
   3      0.000237575292
   4      0.000157787235
   5      0.000010823200
   6      0.000007742426
   7      0.000120545242
   8      0.000006971837
   9      0.000003575104
  10     -0.000207394333
  11     -0.000024738223
  12      0.000706095479
  13      0.000209008719
  14      0.000011789940
  15     -0.000019033684
  16      0.000098863832
  17     -0.001775007773
  18      0.000190079222
  19      0.000007893963
  20      0.000001447792
  21      0.001358503344
  22      0.000056508826
  23      0.000010888725
  24      0.000129863306
  25     -0.000003773633
  26      0.000002240075
  27     -0.000224734566
  28     -0.000018076538
  29     -0.000012598051
  30      0.000136238018
  31     -0.001693420274
  32     -0.000097406963
  33      0.000120274727
  34      0.000111785976
  35     -0.000612217147
  36      0.000908405462
  37      0.000834996966
  38     -0.000009919002
  39      0.000155019341
  40     -0.000212375906
  41      0.000052187921
  42      0.000168636171
  43     -0.000012418443
  44      0.000136319231
  45     -0.001683530665
  46     -0.000085303839
  47     -0.000127765181
  48     -0.000111567153
  49     -0.000521520817
  50     -0.000951686188
  51     -0.000839990555
  52     -0.000013350902
  53     -0.000136158882
  54     -0.000226313209
  55      0.000080616025
  56     -0.000154228037
 Ene=  -0.10838267367040E+02
 Spin= Alpha
 Occup=    0.000000
   1     -0.000011131742
   2     -0.000000549893
   3     -0.000000013400
   4     -0.000000005931
   5     -0.000000015212
   6     -0.000000054318
   7     -0.000000006354
   8     -0.000000012180
   9      0.000000008805
  10      0.000000017289
  11     -0.000000082337
  12     -0.000000043154
  13     -0.000000015623
  14      0.000000111196
  15      0.000000000601
  16     -0.000000005157
  17      0.000000100609
  18     -0.000000010431
  19     -0.000000007840
  20      0.000000027490
  21     -0.000000076058
  22     -0.000000021720
  23     -0.000000045544
  24     -0.000000006224
  25      0.000000210302
  26      0.000000007860
  27      0.000000009782
  28     -0.000000000021
  29     -0.000000012258
  30     -0.000000001065
  31      0.000000121208
  32     -0.000000006294
  33     -0.000000011027
  34     -0.000000036331
  35      0.000000079702
  36     -0.000000058342
  37     -0.000000037610
  38     -0.000000085556
  39     -0.000000020991
  40     -0.000000038420
  41      0.000000050267
  42     -0.000000112931
  43      0.000000013537
  44     -0.000000014270
  45      0.000000074596
  46      0.000000018158
  47      0.000000002400
  48     -0.000000020382
  49     -0.000000013527
  50      0.000000047348
  51      0.000000057134
  52      0.000000074684
  53     -0.000000014424
  54      0.000000060118
  55     -0.000000047731
  56     -0.000000099571
 Ene=  -0.13647466598852E+01
 Spin= Alpha
 Occup=    1.000000
   1      0.159679172547
   2     -0.314848007353
   3     -0.007002993145
   4     -0.098368182553
   5     -0.005101844020
   6     -0.001787906293
   7     -0.001079638071
   8     -0.000124840184
   9     -0.000072116296
  10      0.010982817340
  11      0.000363554607
  12     -0.015256377751
  13     -0.015742722835
  14     -0.001167556188
  15      0.212611533403
  16     -0.432696002132
  17     -0.225026746272
  18      0.132473976725
  19      0.005302077970
  20      0.000979856247
  21      0.033755903510
  22      0.001281329941
  23      0.000173234358
  24      0.005240756321
  25      0.000192751854
  26     -0.007859845481
  27     -0.007387475576
  28     -0.000544300897
  29      0.077517558356
  30     -0.152008849280
  31     -0.078716375652
  32     -0.038729858158
  33      0.038036116932
  34      0.035323952406
  35     -0.010036424711
  36      0.009137054517
  37      0.008508145793
  38     -0.000284517386
  39      0.004904328105
  40     -0.003970912309
  41      0.001018003736
  42      0.005380519539
  43      0.075944939262
  44     -0.148859538639
  45     -0.077098747473
  46     -0.034366582648
  47     -0.040224693631
  48     -0.035163531068
  49     -0.008905137745
  50     -0.009728643866
  51     -0.008486540176
  52     -0.000366442536
  53     -0.004408137013
  54     -0.004362443983
  55      0.001857590832
  56     -0.004947426372
 Ene=  -0.13384823237670E+01
 Spin= Alpha
 Occup=    0.000000
   1     -0.000000423072
   2      0.000000814733
   3     -0.000000034179
   4     -0.000000844253
   5      0.000002198745
   6      0.000009206546
   7      0.000000249929
   8      0.000000445807
   9     -0.000003434602
  10      0.000000036784
  11     -0.000001696844
  12      0.000000022132
  13      0.000000036089
  14     -0.000000676158
  15     -0.000000298977
  16      0.000000563417
  17      0.000000460285
  18      0.000000572276
  19     -0.000004582306
  20     -0.000108909199
  21     -0.000000293616
  22      0.000000634256
  23     -0.000001052393
  24     -0.000000009255
  25      0.000003044714
  26      0.000000136190
  27      0.000000072721
  28     -0.000000147550
  29     -0.000001341351
  30      0.000003294712
  31     -0.000000325841
  32      0.000040317788
  33     -0.000004742267
  34      0.000033986351
  35     -0.000005552469
  36     -0.000001592403
  37     -0.000000781798
  38     -0.000000873845
  39      0.000000246614
  40     -0.000000798935
  41      0.000000401612
  42     -0.000000457411
  43      0.000000750401
  44     -0.000002119410
  45      0.000000918453
  46     -0.000038964942
  47     -0.000003843443
  48      0.000028222385
  49      0.000005377962
  50     -0.000001055787
  51     -0.000000622394
  52      0.000000729437
  53      0.000000090865
  54      0.000000765682
  55     -0.000000398927
  56     -0.000000461443
 Ene=  -0.12107559815800E+01
 Spin= Alpha
 Occup=    0.000000
   1     -0.000058491159
   2      0.000120841603
   3      0.000010495094
   4     -0.000192403389
   5     -0.000004288565
   6     -0.000004575125
   7      0.000007485963
   8     -0.000000475873
   9      0.000001864688
  10      0.000009464234
  11     -0.000001116666
  12      0.000019433657
  13     -0.000019094788
  14     -0.000001759350
  15      0.000102930080
  16     -0.000215660697
  17     -0.000117993517
  18      0.000019575857
  19      0.000002620938
  20      0.000007167963
  21     -0.000003408581
  22      0.000000387634
  23      0.000000175302
  24     -0.000002540719
  25     -0.000000008701
  26     -0.000004007073
  27      0.000004467956
  28      0.000000328126
  29     -0.000103408205
  30      0.000207333185
  31      0.000118025283
  32      0.000068618178
  33     -0.000047604837
  34      0.000004394107
  35      0.000000333505
  36     -0.000011785590
  37     -0.000009536700
  38      0.000000027252
  39     -0.000002449628
  40      0.000002104512
  41     -0.000001832438
  42     -0.000003839653
  43     -0.000099973274
  44      0.000200548665
  45      0.000113374418
  46      0.000062023930
  47      0.000048048134
  48     -0.000001689558
  49     -0.000001446564
  50      0.000011359911
  51      0.000008040592
  52      0.000000118602
  53      0.000001938774
  54      0.000002027375
  55     -0.000002162901
  56      0.000003030272
 Ene=  -0.11978714663700E+01
 Spin= Alpha
 Occup=    1.000000
   1     -0.085878325102
   2      0.181270631640
   3      0.022810977528
   4     -0.231318088866
   5     -0.001747027064
   6      0.005254230158
   7     -0.011838163889
   8      0.000038088415
   9      0.000383557346
  10      0.010372444079
  11     -0.002029242126
  12      0.025970360707
  13     -0.023351868453
  14     -0.002823222700
  15      0.167663618946
  16     -0.347931886681
  17     -0.208767841337
  18      0.053771107226
  19      0.003627990894
  20      0.001724617215
  21      0.015789031169
  22      0.001085484063
  23      0.000526877147
  24      0.000484522902
  25      0.000110445703
  26     -0.006104735907
  27      0.000462825480
  28     -0.000063765497
  29     -0.164008082372
  30      0.328702562358
  31      0.189921272617
  32      0.034409504932
  33     -0.066769029544
  34     -0.061079051600
  35      0.008472246152
  36     -0.018468458499
  37     -0.016866911810
  38      0.001814944385
  39     -0.005305101789
  40      0.005714765222
  41     -0.004006382397
  42     -0.005955653370
  43     -0.150300534269
  44      0.301024788367
  45      0.174119237890
  46      0.023408123572
  47      0.064386887474
  48      0.057161438429
  49      0.005290012453
  50      0.017915863014
  51      0.015938944879
  52      0.001820466060
  53      0.004075236662
  54      0.005874832310
  55     -0.004675902536
  56      0.004448900807
 Ene=  -0.11810364423280E+01
 Spin= Alpha
 Occup=    0.000000
   1     -0.000004463691
   2      0.000009457091
   3      0.000001442855
   4     -0.000003969338
   5     -0.000098420720
   6     -0.000153036059
   7     -0.000001080458
   8     -0.000011063031
   9      0.000011628042
  10      0.000000482430
  11      0.000011351973
  12      0.000001651344
  13     -0.000001840089
  14      0.000010974359
  15      0.000007984127
  16     -0.000016482187
  17     -0.000010439393
  18      0.000002785108
  19     -0.000008336857
  20      0.000109237034
  21      0.000001426955
  22     -0.000002262299
  23      0.000001562192
  24      0.000000116645
  25     -0.000002151136
  26     -0.000000363673
  27     -0.000000294986
  28      0.000001615383
  29      0.000080128101
  30     -0.000163014697
  31     -0.000085951897
  32      0.000003493024
  33      0.000027542477
  34      0.000013828792
  35     -0.000005064237
  36      0.000002111162
  37     -0.000004479471
  38      0.000000078731
  39      0.000001093476
  40      0.000001036224
  41     -0.000000237287
  42      0.000001468338
  43     -0.000095925075
  44      0.000194580978
  45      0.000104517699
  46     -0.000007849714
  47      0.000036521352
  48      0.000020415015
  49      0.000005984825
  50      0.000004640828
  51     -0.000002611064
  52      0.000000102000
  53      0.000001636093
  54     -0.000000121728
  55     -0.000000585208
  56      0.000001968113
 Ene=  -0.11702014078654E+01
 Spin= Alpha
 Occup=    1.000000
   1     -0.003817458331
   2      0.007986459134
   3      0.001171529252
   4      0.002647820722
   5     -0.218637687526
   6     -0.196642472451
   7      0.000260768071
   8     -0.018903996521
   9     -0.017002942917
  10      0.000470028863
  11      0.015956422370
  12      0.001665604496
  13     -0.002249120288
  14      0.017680943476
  15      0.004909478778
  16     -0.010220490648
  17     -0.006210448115
  18      0.003223124351
  19     -0.040621873982
  20     -0.036614300822
  21      0.001070567438
  22     -0.014563403077
  23     -0.013124130721
  24      0.000048011045
  25      0.003688015405
  26     -0.000000187180
  27     -0.000322865653
  28      0.004085498157
  29      0.187154769596
  30     -0.377012096728
  31     -0.217073333437
  32     -0.068173446320
  33      0.058566891730
  34      0.054693905297
  35     -0.020751319476
  36      0.014175680000
  37      0.013366376645
  38     -0.000285765485
  39      0.008022993908
  40     -0.003592466979
  41      0.000730634304
  42      0.008841617751
  43     -0.198976041890
  44      0.400568836575
  45      0.230750267209
  46      0.064419403378
  47      0.068831750408
  48      0.059950855961
  49      0.019810762327
  50      0.017265313813
  51      0.014927057886
  52      0.000531202614
  53      0.007915770023
  54      0.004843633607
  55     -0.002480691634
  56      0.008835263180
 Ene=  -0.71647209911013E+00
 Spin= Alpha
 Occup=    0.999998
   1      0.142223774742
   2     -0.350241962970
   3     -0.009860507912
   4     -0.189249650157
   5     -0.009557473613
   6     -0.003076013670
   7     -0.015998732608
   8     -0.000774067984
   9     -0.000205157905
  10      0.006346535254
  11     -0.000008892118
  12     -0.005111126224
  13     -0.009875980585
  14     -0.000821096263
  15     -0.126831356256
  16      0.269372503875
  17      0.289317271667
  18      0.451891074089
  19      0.018448231805
  20      0.003209546322
  21      0.218613050878
  22      0.008887730537
  23      0.001536075593
  24      0.012049733298
  25     -0.000562512056
  26      0.006637983453
  27     -0.022211222845
  28     -0.001830236003
  29     -0.072380221769
  30      0.150624627875
  31      0.143014377841
  32     -0.098614010566
  33      0.068918378805
  34      0.064984990606
  35     -0.051107701533
  36      0.034325424164
  37      0.032417168485
  38      0.000888762892
  39      0.003898946810
  40     -0.003256027906
  41     -0.001102223779
  42      0.004147817457
  43     -0.071131087575
  44      0.147956609114
  45      0.140126014352
  46     -0.089372219371
  47     -0.073596324866
  48     -0.063433000330
  49     -0.046390563742
  50     -0.036718818154
  51     -0.031603983188
  52      0.000743122811
  53     -0.003568049723
  54     -0.003458716987
  55     -0.000304075296
  56     -0.004121868839
 Ene=  -0.69777569525594E+00
 Spin= Alpha
 Occup=    0.000009
   1      0.000004988239
   2     -0.000012024090
   3     -0.000000952238
   4      0.000009762219
   5     -0.000048327500
   6     -0.000512150025
   7      0.000003804417
   8      0.000007436973
   9     -0.000177464971
  10      0.000000371567
  11     -0.000089166017
  12     -0.000004028271
  13      0.000003709532
  14     -0.000028370370
  15     -0.000001517281
  16      0.000003784181
  17      0.000000988899
  18      0.000036703766
  19     -0.000507991235
  20     -0.001829886539
  21      0.000019752266
  22     -0.000277533824
  23     -0.000866977883
  24      0.000000981229
  25      0.000069796192
  26      0.000003020687
  27     -0.000001873043
  28      0.000015395389
  29     -0.000163695491
  30      0.000340692496
  31      0.000376749041
  32     -0.000057920819
  33      0.000198050559
  34      0.000167557246
  35     -0.000107127296
  36      0.000082553240
  37      0.000037114331
  38      0.000008259075
  39      0.000001167330
  40     -0.000010859367
  41      0.000002012302
  42      0.000008119153
  43      0.000155664066
  44     -0.000323754831
  45     -0.000358602917
  46      0.000042604126
  47      0.000214053174
  48      0.000115431369
  49      0.000096871529
  50      0.000093290903
  51      0.000019153266
  52     -0.000009385375
  53     -0.000000164105
  54      0.000009838141
  55     -0.000003603382
  56      0.000007775846
 Ene=  -0.66387332475290E+00
 Spin= Alpha
 Occup=    0.999640
   1     -0.001284993032
   2      0.003075537892
   3      0.000317171593
   4     -0.012225559085
   5      0.133398211656
   6      0.120320149996
   7     -0.001746599705
   8      0.021647274780
   9      0.019526633939
  10      0.000337416503
  11      0.012938183889
  12      0.000905911698
  13     -0.001487615807
  14      0.014341286528
  15     -0.000723937752
  16      0.001354546167
  17      0.002492841333
  18     -0.006938036026
  19      0.256094328358
  20      0.230503930844
  21     -0.004892251715
  22      0.150880277392
  23      0.135822828230
  24     -0.000028533294
  25     -0.010061366127
  26     -0.000459026171
  27      0.000799073817
  28     -0.011164457707
  29      0.061975517338
  30     -0.128040090356
  31     -0.144362710975
  32      0.115036906777
  33     -0.081014359192
  34     -0.075146510362
  35      0.063989623552
  36     -0.038199114605
  37     -0.035659397967
  38     -0.001328150553
  39     -0.003595110067
  40      0.004548941962
  41      0.001522522877
  42     -0.003752251196
  43     -0.058914781616
  44      0.121621501686
  45      0.137234985915
  46     -0.105494049822
  47     -0.080856216758
  48     -0.070635479379
  49     -0.059403102713
  50     -0.038373448204
  51     -0.033303777505
  52      0.001257255011
  53     -0.003246998598
  54     -0.004432473387
  55     -0.001046660973
  56     -0.003833434567
 Ene=  -0.65449161619249E+00
 Spin= Alpha
 Occup=    0.000352
   1      0.000031994492
   2     -0.000076510652
   3     -0.000009236352
   4      0.000343874879
   5     -0.004186261370
   6     -0.002386522833
   7      0.000055143127
   8     -0.000809701648
   9     -0.000121140613
  10      0.000007467590
  11     -0.000246390747
  12     -0.000018271508
  13      0.000049561970
  14     -0.000406920310
  15      0.000019636746
  16     -0.000037322722
  17     -0.000067516345
  18      0.000210071185
  19     -0.007693337668
  20     -0.004170017641
  21      0.000143996939
  22     -0.004567235718
  23     -0.002662941345
  24      0.000000136805
  25      0.000183079428
  26      0.000009214928
  27     -0.000024416544
  28      0.000347188716
  29     -0.001561060446
  30      0.003233590804
  31      0.003635859237
  32     -0.002731383752
  33      0.001642206410
  34      0.002366404327
  35     -0.001630258304
  36      0.000771349528
  37      0.001185789434
  38     -0.000001515210
  39      0.000106306915
  40     -0.000116807121
  41     -0.000057642120
  42      0.000075362925
  43      0.001484366284
  44     -0.003072317149
  45     -0.003454791542
  46      0.002518513987
  47      0.001890782129
  48      0.001957265708
  49      0.001523568785
  50      0.000885329097
  51      0.001002880444
  52     -0.000005895016
  53      0.000092729364
  54      0.000113411338
  55      0.000042875694
  56      0.000084590709
 Ene=  -0.64286735228809E+00
 Spin= Alpha
 Occup=    0.999978
   1     -0.001129010461
   2      0.002857958692
   3      0.000309504450
   4     -0.001003704153
   5     -0.116266720284
   6      0.129007406865
   7      0.000592193769
   8     -0.047536499144
   9      0.052794074186
  10      0.000230301823
  11      0.005297550100
  12      0.000213775059
  13      0.000482703631
  14     -0.004770528799
  15     -0.000696966319
  16      0.001479802623
  17      0.002079680099
  18      0.007210572283
  19     -0.136411077487
  20      0.151631516460
  21      0.004098344526
  22     -0.079417803687
  23      0.088266574096
  24     -0.000035911185
  25     -0.008540000144
  26     -0.000274274856
  27     -0.000679833451
  28      0.007662792989
  29      0.001268477475
  30     -0.002589249381
  31     -0.003135527977
  32      0.000843930912
  33     -0.075271026659
  34      0.076263311087
  35      0.000342233367
  36     -0.041744146945
  37      0.042405570108
  38     -0.005778063701
  39      0.002838707594
  40     -0.000414461584
  41     -0.003350301539