[Molden Format]
[Atoms] (AU)
S    1   16           0.0000000000         0.0000000000         1.9184738144
C    2    6           0.0000000000         0.0000000000        -1.1567058406
N    3    7           0.0000000000         0.0000000000        -3.3890495215
[GTO]
  1 0
 s    5  1.00
     9184.9303010000        -0.0022294388
     1381.5105503000        -0.0166830299
      313.8714758000        -0.0752624361
       88.0538706230        -0.1937682704
       27.0399149050        -0.1771802080
 s    3  1.00
       45.6487313030        -0.1073606257
        4.9664522326         0.6506629302
        2.0116242047         0.5971215535
 s    1  1.00
        0.3566107701         1.0000000000
 s    1  1.00
        0.1350722148         1.0000000000
 p    5  1.00
      261.9823343900        -0.0092729930
       61.3068947360        -0.0665476692
       19.1037298870        -0.2482859590
        6.6567720378        -0.4870384740
        2.3959635161        -0.3933785031
 p    1  1.00
        0.6177616168         1.0000000000
 p    1  1.00
        0.1699337687         1.0000000000
 d    1  1.00
        0.5500000000         1.0000000000

  2 0
 s    5  1.00
     1238.4016938000         0.0054568832
      186.2900499200         0.0406384092
       42.2511763460         0.1802559389
       11.6765579320         0.4631512175
        3.5930506482         0.4408717331
 s    1  1.00
        0.4024514736         1.0000000000
 s    1  1.00
        0.1309018267         1.0000000000
 p    3  1.00
        9.4680970621         0.0383878717
        2.0103545142         0.2111702511
        0.5477100471         0.5132817211
 p    1  1.00
        0.1526861379         1.0000000000
 d    1  1.00
        0.8000000000         1.0000000000

  3 0
 s    5  1.00
     1712.8415853000        -0.0053934125
      257.6481267700        -0.0402215811
       58.4582458530        -0.1793114499
       16.1983679050        -0.4637631782
        5.0052600809        -0.4417142266
 s    1  1.00
        0.5873185657         1.0000000000
 s    1  1.00
        0.1876459225         1.0000000000
 p    3  1.00
       13.5714702330        -0.0400723989
        2.9257372874        -0.2180704503
        0.7992775075        -0.5129446605
 p    1  1.00
        0.2195434803         1.0000000000
 d    1  1.00
        1.0000000000         1.0000000000

[5D7F]
[9G]

[MO]
 Sym= A1
 Ene=        -8.9084031721e+01
 Spin= Alpha
 Occup=         1.0000000000e+00
  1         9.9425250587e-01
  2        -2.1704106721e-02
  3         9.5038319578e-03
  4        -2.4657164013e-03
  5         0.0000000000e+00
  6         0.0000000000e+00
  7        -2.1692429596e-04
  8         0.0000000000e+00
  9         0.0000000000e+00
 10        -6.7411193943e-04
 11         0.0000000000e+00
 12         0.0000000000e+00
 13        -1.0414006386e-03
 14         4.8488407068e-04
 15         0.0000000000e+00
 16         0.0000000000e+00
 17         4.2373305017e-07
 18         0.0000000000e+00
 19         1.1418322655e-04
 20         3.3921629479e-04
 21         3.4459244170e-03
 22         0.0000000000e+00
 23         0.0000000000e+00
 24        -3.6502585061e-04
 25         0.0000000000e+00
 26         0.0000000000e+00
 27        -5.7538228392e-03
 28        -9.7544639635e-04
 29         0.0000000000e+00
 30         0.0000000000e+00
 31        -1.4265077378e-08
 32         0.0000000000e+00
 33         1.1656984168e-04
 34         1.3787709771e-03
 35        -7.3532878551e-03
 36         0.0000000000e+00
 37         0.0000000000e+00
 38        -4.3354994073e-04
 39         0.0000000000e+00
 40         0.0000000000e+00
 41        -2.3917966020e-03
 42         9.5248771120e-05
 43         0.0000000000e+00
 44         0.0000000000e+00
 45        -1.5560410618e-09
 46         0.0000000000e+00
 Sym= A1
 Ene=        -1.4441174202e+01
 Spin= Alpha
 Occup=         1.0000000000e+00
  1        -5.1443114372e-05
  2        -4.4801537141e-04
  3         2.2530404510e-03
  4         1.0771933440e-02
  5         0.0000000000e+00
  6         0.0000000000e+00
  7        -1.7076836526e-04
  8         0.0000000000e+00
  9         0.0000000000e+00
 10        -9.0872801215e-04
 11         0.0000000000e+00
 12         0.0000000000e+00
 13        -6.3070681132e-03
 14         8.9762586395e-04
 15         0.0000000000e+00
 16         0.0000000000e+00
 17         1.4403070973e-07
 18         0.0000000000e+00
 19         3.0939162044e-04
 20         1.8539434710e-03
 21         1.9304362199e-02
 22         0.0000000000e+00
 23         0.0000000000e+00
 24         3.3252497539e-03
 25         0.0000000000e+00
 26         0.0000000000e+00
 27        -2.9428616278e-02
 28        -2.6588709444e-03
 29         0.0000000000e+00
 30         0.0000000000e+00
 31        -7.6107167103e-06
 32         0.0000000000e+00
 33        -9.8884809084e-01
 34         4.4388086689e-02
 35        -5.2872630106e-02
 36         0.0000000000e+00
 37         0.0000000000e+00
 38        -4.9418211869e-03
 39         0.0000000000e+00
 40         0.0000000000e+00
 41        -1.4473969083e-02
 42         1.1594645358e-03
 43         0.0000000000e+00
 44         0.0000000000e+00
 45         1.2218662239e-04
 46         0.0000000000e+00
 Sym= A1
 Ene=        -1.0325270485e+01
 Spin= Alpha
 Occup=         1.0000000000e+00
  1        -8.0453443956e-05
  2        -6.5217331105e-04
  3         1.3018037217e-03
  4        -2.2190610804e-02
  5         0.0000000000e+00
  6         0.0000000000e+00
  7        -5.3144999372e-04
  8         0.0000000000e+00
  9         0.0000000000e+00
 10        -2.0847781761e-03
 11         0.0000000000e+00
 12         0.0000000000e+00
 13         1.1018905807e-02
 14         2.1143710853e-03
 15         0.0000000000e+00
 16         0.0000000000e+00
 17        -6.9489043807e-07
 18         0.0000000000e+00
 19        -9.8853464782e-01
 20        -4.8401145493e-02
 21         4.1652937057e-03
 22         0.0000000000e+00
 23         0.0000000000e+00
 24         1.2999217810e-03
 25         0.0000000000e+00
 26         0.0000000000e+00
 27         3.7654890427e-02
 28        -4.1011020916e-03
 29         0.0000000000e+00
 30         0.0000000000e+00
 31         1.9802684523e-05
 32         0.0000000000e+00
 33        -5.5329161984e-04
 34        -7.7223138716e-04
 35         4.0456835588e-02
 36         0.0000000000e+00
 37         0.0000000000e+00
 38        -1.9989086130e-03
 39         0.0000000000e+00
 40         0.0000000000e+00
 41         1.6748907738e-02
 42         1.1519411373e-03
 43         0.0000000000e+00
 44         0.0000000000e+00
 45        -3.2764132885e-06
 46         0.0000000000e+00
 Sym= A1
 Ene=        -8.0846112327e+00
 Spin= Alpha
 Occup=         1.0000000000e+00
  1         3.0659740938e-01
  2         1.0215994151e+00
  3         4.7116236059e-02
  4        -9.8260971922e-03
  5         0.0000000000e+00
  6         0.0000000000e+00
  7         7.5880904040e-03
  8         0.0000000000e+00
  9         0.0000000000e+00
 10        -2.2230660115e-03
 11         0.0000000000e+00
 12         0.0000000000e+00
 13        -3.0024251034e-03
 14         1.3683302334e-03
 15         0.0000000000e+00
 16         0.0000000000e+00
 17         4.8408273276e-04
 18         0.0000000000e+00
 19         4.0551939680e-05
 20         9.5048573421e-04
 21         9.1954332255e-03
 22         0.0000000000e+00
 23         0.0000000000e+00
 24        -1.3051300687e-03
 25         0.0000000000e+00
 26         0.0000000000e+00
 27        -1.5533684350e-02
 28        -1.4929961160e-03
 29         0.0000000000e+00
 30         0.0000000000e+00
 31        -1.3521620415e-05
 32         0.0000000000e+00
 33         2.2512168703e-04
 34         2.8472402035e-03
 35        -1.9269347837e-02
 36         0.0000000000e+00
 37         0.0000000000e+00
 38        -5.9421201886e-04
 39         0.0000000000e+00
 40         0.0000000000e+00
 41        -6.1507443313e-03
 42         1.5446980663e-05
 43         0.0000000000e+00
 44         0.0000000000e+00
 45         1.0975060040e-06
 46         0.0000000000e+00
 Sym= B1
 Ene=        -6.0306548981e+00
 Spin= Alpha
 Occup=         1.0000000000e+00
  1         0.0000000000e+00
  2         0.0000000000e+00
  3         0.0000000000e+00
  4         0.0000000000e+00
  5         9.8229635699e-01
  6         0.0000000000e+00
  7         0.0000000000e+00
  8        -4.9027590052e-02
  9         0.0000000000e+00
 10         0.0000000000e+00
 11         8.0292244631e-03
 12         0.0000000000e+00
 13         0.0000000000e+00
 14         0.0000000000e+00
 15         3.8291743720e-04
 16         0.0000000000e+00
 17         0.0000000000e+00
 18         0.0000000000e+00
 19         0.0000000000e+00
 20         0.0000000000e+00
 21         0.0000000000e+00
 22         2.6442896033e-04
 23         0.0000000000e+00
 24         0.0000000000e+00
 25        -1.7811519563e-03
 26         0.0000000000e+00
 27         0.0000000000e+00
 28         0.0000000000e+00
 29         6.0686710948e-04
 30         0.0000000000e+00
 31         0.0000000000e+00
 32         0.0000000000e+00
 33         0.0000000000e+00
 34         0.0000000000e+00
 35         0.0000000000e+00
 36         5.4428823455e-06
 37         0.0000000000e+00
 38         0.0000000000e+00
 39         7.7115372179e-04
 40         0.0000000000e+00
 41         0.0000000000e+00
 42         0.0000000000e+00
 43         2.4646442156e-04
 44         0.0000000000e+00
 45         0.0000000000e+00
 46         0.0000000000e+00
 Sym= A1
 Ene=        -6.0244705995e+00
 Spin= Alpha
 Occup=         1.0000000000e+00
  1         2.6037773148e-03
  2         9.4476526843e-03
  3        -2.9583960949e-03
  4         4.0571473599e-04
  5         0.0000000000e+00
  6         0.0000000000e+00
  7        -9.8177829502e-01
  8         0.0000000000e+00
  9         0.0000000000e+00
 10         5.0748871015e-02
 11         0.0000000000e+00
 12         0.0000000000e+00
 13        -7.4820076289e-03
 14        -1.9517438109e-03
 15         0.0000000000e+00
 16         0.0000000000e+00
 17         5.5923605838e-06
 18         0.0000000000e+00
 19        -8.3983419300e-05
 20         4.4706803500e-04
 21        -6.6790467679e-03
 22         0.0000000000e+00
 23         0.0000000000e+00
 24         1.2641136072e-03
 25         0.0000000000e+00
 26         0.0000000000e+00
 27         5.5762525797e-03
 28         2.2498681515e-03
 29         0.0000000000e+00
 30         0.0000000000e+00
 31        -4.6388769428e-06
 32         0.0000000000e+00
 33        -1.6324156683e-04
 34        -1.8815899475e-03
 35         8.5450593606e-03
 36         0.0000000000e+00
 37         0.0000000000e+00
 38         7.3445498728e-04
 39         0.0000000000e+00
 40         0.0000000000e+00
 41         2.6288800929e-03
 42        -3.5960380783e-04
 43         0.0000000000e+00
 44         0.0000000000e+00
 45         4.7975093498e-07
 46         0.0000000000e+00
 Sym= B2
 Ene=        -6.0150517149e+00
 Spin= Alpha
 Occup=         1.0000000000e+00
  1         0.0000000000e+00
  2         0.0000000000e+00
  3         0.0000000000e+00
  4         0.0000000000e+00
  5         0.0000000000e+00
  6         9.8270772219e-01
  7         0.0000000000e+00
  8         0.0000000000e+00
  9        -4.7918772813e-02
 10         0.0000000000e+00
 11         0.0000000000e+00
 12         7.7775193801e-03
 13         0.0000000000e+00
 14         0.0000000000e+00
 15         0.0000000000e+00
 16         3.8720360031e-04
 17         0.0000000000e+00
 18         0.0000000000e+00
 19         0.0000000000e+00
 20         0.0000000000e+00
 21         0.0000000000e+00
 22         0.0000000000e+00
 23         2.4840880153e-04
 24         0.0000000000e+00
 25         0.0000000000e+00
 26        -1.7210538583e-03
 27         0.0000000000e+00
 28         0.0000000000e+00
 29         0.0000000000e+00
 30         5.6840360603e-04
 31         0.0000000000e+00
 32         0.0000000000e+00
 33         0.0000000000e+00
 34         0.0000000000e+00
 35         0.0000000000e+00
 36         0.0000000000e+00
 37         7.5614045603e-06
 38         0.0000000000e+00
 39         0.0000000000e+00
 40         7.4267782290e-04
 41         0.0000000000e+00
 42         0.0000000000e+00
 43         0.0000000000e+00
 44         2.3314804724e-04
 45         0.0000000000e+00
 46         0.0000000000e+00
 Sym= A1
 Ene=        -9.6883055473e-01
 Spin= Alpha
 Occup=         1.0000000000e+00
  1         1.6015890060e-02
  2         9.9069952123e-02
  3        -1.3833389676e-01
  4        -6.3299754685e-02
  5         0.0000000000e+00
  6         0.0000000000e+00
  7         2.5393339231e-02
  8         0.0000000000e+00
  9         0.0000000000e+00
 10         4.0229381737e-02
 11         0.0000000000e+00
 12         0.0000000000e+00
 13         3.4678893770e-02
 14        -1.4474029279e-02
 15         0.0000000000e+00
 16         0.0000000000e+00
 17        -3.3962543335e-03
 18         0.0000000000e+00
 19         1.9790462804e-01
 20        -3.8613080411e-01
 21        -6.2390677130e-02
 22         0.0000000000e+00
 23         0.0000000000e+00
 24         1.7030861330e-01
 25         0.0000000000e+00
 26         0.0000000000e+00
 27         3.4475945724e-02
 28        -2.7065687108e-02
 29         0.0000000000e+00
 30         0.0000000000e+00
 31        -7.5439045194e-04
 32         0.0000000000e+00
 33        -2.2776059966e-01
 34        -4.5388549656e-01
 35        -1.4887090083e-01
 36         0.0000000000e+00
 37         0.0000000000e+00
 38         1.9321594588e-01
 39         0.0000000000e+00
 40         0.0000000000e+00
 41        -2.3010285229e-02
 42        -1.5997450999e-02
 43         0.0000000000e+00
 44         0.0000000000e+00
 45        -4.1956233948e-03
 46         0.0000000000e+00
 Sym= A1
 Ene=        -8.4429022515e-01
 Spin= Alpha
 Occup=         1.0000000000e+00
  1         6.9983452871e-02
  2         4.3717972529e-01
  3        -6.3081559335e-01
  4        -2.3770800440e-01
  5         0.0000000000e+00
  6         0.0000000000e+00
  7         6.7433411495e-02
  8         0.0000000000e+00
  9         0.0000000000e+00
 10         1.1220036497e-01
 11         0.0000000000e+00
 12         0.0000000000e+00
 13         6.2762656943e-02
 14        -2.9578746607e-02
 15         0.0000000000e+00
 16         0.0000000000e+00
 17        -1.6369747955e-02
 18         0.0000000000e+00
 19         6.6431422780e-02
 20        -1.4127004693e-01
 21        -6.6653428225e-03
 22         0.0000000000e+00
 23         0.0000000000e+00
 24        -2.6804906474e-01
 25         0.0000000000e+00
 26         0.0000000000e+00
 27        -5.1735151076e-02
 28        -1.1736618007e-02
 29         0.0000000000e+00
 30         0.0000000000e+00
 31        -1.4660440209e-05
 32         0.0000000000e+00
 33         9.3055819392e-02
 34         1.9425186296e-01
 35         4.9681335451e-02
 36         0.0000000000e+00
 37         0.0000000000e+00
 38        -6.5132152226e-02
 39         0.0000000000e+00
 40         0.0000000000e+00
 41        -1.6949218886e-03
 42         5.0181619581e-03
 43         0.0000000000e+00
 44         0.0000000000e+00
 45         1.7090873569e-03
 46         0.0000000000e+00
 Sym= A1
 Ene=        -5.2222823568e-01
 Spin= Alpha
 Occup=         1.0000000000e+00
  1         4.2768375479e-02
  2         2.7547519243e-01
  3        -3.9786646833e-01
  4        -3.8457169165e-01
  5         0.0000000000e+00
  6         0.0000000000e+00
  7        -1.8514189054e-01
  8         0.0000000000e+00
  9         0.0000000000e+00
 10        -3.2555868141e-01
 11         0.0000000000e+00
 12         0.0000000000e+00
 13        -2.4692128585e-01
 14         5.8190187260e-02
 15         0.0000000000e+00
 16         0.0000000000e+00
 17        -1.5740698041e-02
 18         0.0000000000e+00
 19        -1.4689526625e-01
 20         3.2755714878e-01
 21         1.3825603058e-01
 22         0.0000000000e+00
 23         0.0000000000e+00
 24         2.1902660198e-01
 25         0.0000000000e+00
 26         0.0000000000e+00
 27         1.5084943175e-01
 28         9.7630358805e-03
 29         0.0000000000e+00
 30         0.0000000000e+00
 31         5.6081475771e-05
 32         0.0000000000e+00
 33        -8.2660484854e-02
 34        -1.8675721506e-01
 35        -5.1921308022e-02
 36         0.0000000000e+00
 37         0.0000000000e+00
 38        -6.3923160598e-02
 39         0.0000000000e+00
 40         0.0000000000e+00
 41         6.3455401031e-02
 42         5.2706576301e-03
 43         0.0000000000e+00
 44         0.0000000000e+00
 45        -1.6433644050e-03
 46         0.0000000000e+00
 Sym= B1
 Ene=        -4.4653158046e-01
 Spin= Alpha
 Occup=         1.0000000000e+00
  1         0.0000000000e+00
  2         0.0000000000e+00
  3         0.0000000000e+00
  4         0.0000000000e+00
  5         1.5034375230e-01
  6         0.0000000000e+00
  7         0.0000000000e+00
  8         2.7276459532e-01
  9         0.0000000000e+00
 10         0.0000000000e+00
 11         2.9194371402e-01
 12         0.0000000000e+00
 13         0.0000000000e+00
 14         0.0000000000e+00
 15        -4.7913664901e-02
 16         0.0000000000e+00
 17         0.0000000000e+00
 18         0.0000000000e+00
 19         0.0000000000e+00
 20         0.0000000000e+00
 21         0.0000000000e+00
 22         3.7325234018e-01
 23         0.0000000000e+00
 24         0.0000000000e+00
 25         1.9293840627e-01
 26         0.0000000000e+00
 27         0.0000000000e+00
 28         0.0000000000e+00
 29        -5.6571599471e-03
 30         0.0000000000e+00
 31         0.0000000000e+00
 32         0.0000000000e+00
 33         0.0000000000e+00
 34         0.0000000000e+00
 35         0.0000000000e+00
 36        -3.4563729002e-01
 37         0.0000000000e+00
 38         0.0000000000e+00
 39         1.7999834177e-01
 40         0.0000000000e+00
 41         0.0000000000e+00
 42         0.0000000000e+00
 43         2.7687934662e-02
 44         0.0000000000e+00
 45         0.0000000000e+00
 46         0.0000000000e+00
 Sym= B2
 Ene=        -4.2682524611e-01
 Spin= Alpha
 Occup=         1.0000000000e+00
  1         0.0000000000e+00
  2         0.0000000000e+00
  3         0.0000000000e+00
  4         0.0000000000e+00
  5         0.0000000000e+00
  6         1.2911620591e-01
  7         0.0000000000e+00
  8         0.0000000000e+00
  9         2.3178034975e-01
 10         0.0000000000e+00
 11         0.0000000000e+00
 12         2.4661279827e-01
 13         0.0000000000e+00
 14         0.0000000000e+00
 15         0.0000000000e+00
 16        -4.8157637429e-02
 17         0.0000000000e+00
 18         0.0000000000e+00
 19         0.0000000000e+00
 20         0.0000000000e+00
 21         0.0000000000e+00
 22         0.0000000000e+00
 23         4.0374642382e-01
 24         0.0000000000e+00
 25         0.0000000000e+00
 26         2.1595006858e-01
 27         0.0000000000e+00
 28         0.0000000000e+00
 29         0.0000000000e+00
 30        -6.5817490356e-03
 31         0.0000000000e+00
 32         0.0000000000e+00
 33         0.0000000000e+00
 34         0.0000000000e+00
 35         0.0000000000e+00
 36         0.0000000000e+00
 37        -3.5194462177e-01
 38         0.0000000000e+00
 39         0.0000000000e+00
 40         1.8392547699e-01
 41         0.0000000000e+00
 42         0.0000000000e+00
 43         0.0000000000e+00
 44         2.8275740461e-02
 45         0.0000000000e+00
 46         0.0000000000e+00
 Sym= A1
 Ene=        -4.1555001767e-01
 Spin= Alpha
 Occup=         1.0000000000e+00
  1         4.5984690988e-03
  2         2.9850705062e-02
  3        -3.0939461334e-02
  4        -5.7582657308e-02
  5         0.0000000000e+00
  6         0.0000000000e+00
  7        -7.5563189333e-02
  8         0.0000000000e+00
  9         0.0000000000e+00
 10        -1.3772834291e-01
 11         0.0000000000e+00
 12         0.0000000000e+00
 13        -1.3638704821e-01
 14         1.7412401681e-02
 15         0.0000000000e+00
 16         0.0000000000e+00
 17        -2.6760475833e-03
 18         0.0000000000e+00
 19         7.3693551912e-02
 20        -1.7122413439e-01
 21        -5.0239352985e-02
 22         0.0000000000e+00
 23         0.0000000000e+00
 24         2.8083884027e-01
 25         0.0000000000e+00
 26         0.0000000000e+00
 27         2.4613382079e-02
 28         7.0293305660e-03
 29         0.0000000000e+00
 30         0.0000000000e+00
 31        -3.0849635631e-04
 32         0.0000000000e+00
 33         1.4643863535e-01
 34         3.0816588817e-01
 35         4.0408028051e-01
 36         0.0000000000e+00
 37         0.0000000000e+00
 38         4.8853419334e-01
 39         0.0000000000e+00
 40         0.0000000000e+00
 41        -2.3864742583e-01
 42        -3.0117024078e-02
 43         0.0000000000e+00
 44         0.0000000000e+00
 45         3.3555915391e-03
 46         0.0000000000e+00
 Sym= B1
 Ene=        -3.4244123957e-01
 Spin= Alpha
 Occup=         1.0000000000e+00
  1         0.0000000000e+00
  2         0.0000000000e+00
  3         0.0000000000e+00
  4         0.0000000000e+00
  5         2.2011309295e-01
  6         0.0000000000e+00
  7         0.0000000000e+00
  8         4.0089380961e-01
  9         0.0000000000e+00
 10         0.0000000000e+00
 11         5.3512487707e-01
 12         0.0000000000e+00
 13         0.0000000000e+00
 14         0.0000000000e+00
 15        -7.7924445272e-03
 16         0.0000000000e+00
 17         0.0000000000e+00
 18         0.0000000000e+00
 19         0.0000000000e+00
 20         0.0000000000e+00
 21         0.0000000000e+00
 22        -1.3994702791e-01
 23         0.0000000000e+00
 24         0.0000000000e+00
 25        -8.6598670697e-02
 26         0.0000000000e+00
 27         0.0000000000e+00
 28         0.0000000000e+00
 29         4.1070854781e-02
 30         0.0000000000e+00
 31         0.0000000000e+00
 32         0.0000000000e+00
 33         0.0000000000e+00
 34         0.0000000000e+00
 35         0.0000000000e+00
 36         3.7489586697e-01
 37         0.0000000000e+00
 38         0.0000000000e+00
 39        -2.4524841888e-01
 40         0.0000000000e+00
 41         0.0000000000e+00
 42         0.0000000000e+00
 43        -1.9279001580e-02
 44         0.0000000000e+00
 45         0.0000000000e+00
 46         0.0000000000e+00
 Sym= B2
 Ene=        -3.0713743579e-01
 Spin= Alpha
 Occup=         1.0000000000e+00
  1         0.0000000000e+00
  2         0.0000000000e+00
  3         0.0000000000e+00
  4         0.0000000000e+00
  5         0.0000000000e+00
  6         2.2549199732e-01
  7         0.0000000000e+00
  8         0.0000000000e+00
  9         4.0599704045e-01
 10         0.0000000000e+00
 11         0.0000000000e+00
 12         5.6187764495e-01
 13         0.0000000000e+00
 14         0.0000000000e+00
 15         0.0000000000e+00
 16        -1.2833151639e-02
 17         0.0000000000e+00
 18         0.0000000000e+00
 19         0.0000000000e+00
 20         0.0000000000e+00
 21         0.0000000000e+00
 22         0.0000000000e+00
 23        -1.1256947911e-01
 24         0.0000000000e+00
 25         0.0000000000e+00
 26        -6.5788955565e-02
 27         0.0000000000e+00
 28         0.0000000000e+00
 29         0.0000000000e+00
 30         4.2579628048e-02
 31         0.0000000000e+00
 32         0.0000000000e+00
 33         0.0000000000e+00
 34         0.0000000000e+00
 35         0.0000000000e+00
 36         0.0000000000e+00
 37         3.4713535788e-01
 38         0.0000000000e+00
 39         0.0000000000e+00
 40        -2.4110705971e-01
 41         0.0000000000e+00
 42         0.0000000000e+00
 43         0.0000000000e+00
 44        -1.6683218470e-02
 45         0.0000000000e+00
 46         0.0000000000e+00
 Sym= B1
 Ene=         2.2452994918e-03
 Spin= Alpha
 Occup=         0.0000000000e+00
  1         0.0000000000e+00
  2         0.0000000000e+00
  3         0.0000000000e+00
  4         0.0000000000e+00
  5         8.6024305165e-02
  6         0.0000000000e+00
  7         0.0000000000e+00
  8         1.5652950184e-01
  9         0.0000000000e+00
 10         0.0000000000e+00
 11         3.7529126271e-01
 12         0.0000000000e+00
 13         0.0000000000e+00
 14         0.0000000000e+00
 15         1.5171697109e-01
 16         0.0000000000e+00
 17         0.0000000000e+00
 18         0.0000000000e+00
 19         0.0000000000e+00
 20         0.0000000000e+00
 21         0.0000000000e+00
 22        -4.9974937948e-01
 23         0.0000000000e+00
 24         0.0000000000e+00
 25        -6.6542950452e-01
 26         0.0000000000e+00
 27         0.0000000000e+00
 28         0.0000000000e+00
 29        -3.6894238594e-02
 30         0.0000000000e+00
 31         0.0000000000e+00
 32         0.0000000000e+00
 33         0.0000000000e+00
 34         0.0000000000e+00
 35         0.0000000000e+00
 36        -4.2006321368e-01
 37         0.0000000000e+00
 38         0.0000000000e+00
 39         5.3654425320e-01
 40         0.0000000000e+00
 41         0.0000000000e+00
 42         0.0000000000e+00
 43        -1.0761717660e-02
 44         0.0000000000e+00
 45         0.0000000000e+00
 46         0.0000000000e+00
 Sym= B2
 Ene=         1.7858440732e-02
 Spin= Alpha
 Occup=         0.0000000000e+00
  1         0.0000000000e+00
  2         0.0000000000e+00
  3         0.0000000000e+00
  4         0.0000000000e+00
  5         0.0000000000e+00
  6         9.0224034842e-02
  7         0.0000000000e+00
  8         0.0000000000e+00
  9         1.6144763157e-01
 10         0.0000000000e+00
 11         0.0000000000e+00
 12         3.9296978350e-01
 13         0.0000000000e+00
 14         0.0000000000e+00
 15         0.0000000000e+00
 16         1.4211943176e-01
 17         0.0000000000e+00
 18         0.0000000000e+00
 19         0.0000000000e+00
 20         0.0000000000e+00
 21         0.0000000000e+00
 22         0.0000000000e+00
 23        -4.9713095991e-01
 24         0.0000000000e+00
 25         0.0000000000e+00
 26        -6.5315569801e-01
 27         0.0000000000e+00
 28         0.0000000000e+00
 29         0.0000000000e+00
 30        -3.7920467428e-02
 31         0.0000000000e+00
 32         0.0000000000e+00
 33         0.0000000000e+00
 34         0.0000000000e+00
 35         0.0000000000e+00
 36         0.0000000000e+00
 37        -4.2501499321e-01
 38         0.0000000000e+00
 39         0.0000000000e+00
 40         5.4890113107e-01
 41         0.0000000000e+00
 42         0.0000000000e+00
 43         0.0000000000e+00
 44        -1.0205895002e-02
 45         0.0000000000e+00
 46         0.0000000000e+00
 Sym= A1
 Ene=         5.8485265270e-02
 Spin= Alpha
 Occup=         0.0000000000e+00
  1         2.9345961032e-02
  2         1.9976955059e-01
  3        -3.1344748393e-01
  4        -1.0412461037e+00
  5         0.0000000000e+00
  6         0.0000000000e+00
  7         1.7125368697e-01
  8         0.0000000000e+00
  9         0.0000000000e+00
 10         2.8588284295e-01
 11         0.0000000000e+00
 12         0.0000000000e+00
 13         1.2748265187e+00
 14         1.7406561815e-01
 15         0.0000000000e+00
 16         0.0000000000e+00
 17        -2.3304568325e-02
 18         0.0000000000e+00
 19        -1.4712958156e-01
 20         3.4704858951e-01
 21         1.5218330250e+00
 22         0.0000000000e+00
 23         0.0000000000e+00
 24         2.9821240671e-01
 25         0.0000000000e+00
 26         0.0000000000e+00
 27         6.7838899761e-01
 28        -3.9635547491e-02
 29         0.0000000000e+00
 30         0.0000000000e+00
 31        -6.4521426543e-04
 32         0.0000000000e+00
 33        -6.5086163277e-02
 34        -1.8910942066e-01
 35        -1.5701448064e-02
 36         0.0000000000e+00
 37         0.0000000000e+00
 38         1.8603275445e-01
 39         0.0000000000e+00
 40         0.0000000000e+00
 41        -1.4493630426e-01
 42        -3.3729681182e-03
 43         0.0000000000e+00
 44         0.0000000000e+00
 45        -1.0376382452e-03
 46         0.0000000000e+00
 Sym= A1
 Ene=         1.6728275009e-01
 Spin= Alpha
 Occup=         0.0000000000e+00
  1         2.5668331849e-02
  2         1.8711665303e-01
  3        -8.4782762033e-01
  4         2.7732742306e+00
  5         0.0000000000e+00
  6         0.0000000000e+00
  7         6.5794015957e-03
  8         0.0000000000e+00
  9         0.0000000000e+00
 10         8.4384830411e-02
 11         0.0000000000e+00
 12         0.0000000000e+00
 13        -1.4504409742e+00
 14        -1.4954204998e-01
 15         0.0000000000e+00
 16         0.0000000000e+00
 17         1.1756423882e-02
 18         0.0000000000e+00
 19         8.1716255004e-02
 20        -3.1130266121e-01
 21         1.7346407259e+00
 22         0.0000000000e+00
 23         0.0000000000e+00
 24        -2.0300952620e-01
 25         0.0000000000e+00
 26         0.0000000000e+00
 27        -3.6157833067e+00
 28        -3.5929760553e-02
 29         0.0000000000e+00
 30         0.0000000000e+00
 31         5.3644252590e-04
 32         0.0000000000e+00
 33        -6.5180439117e-02
 34         5.5367695329e-03
 35        -3.7310916856e+00
 36         0.0000000000e+00
 37         0.0000000000e+00
 38         3.8574588606e-02
 39         0.0000000000e+00
 40         0.0000000000e+00
 41        -1.2012968546e+00
 42        -2.5721187113e-02
 43         0.0000000000e+00
 44         0.0000000000e+00
 45        -1.0877629906e-03
 46         0.0000000000e+00
 Sym= A1
 Ene=         3.9570342504e-01
 Spin= Alpha
 Occup=         0.0000000000e+00
  1         6.2255971054e-02
  2         4.6349145614e-01
  3        -1.9549348018e+00
  4         2.1637201336e+00
  5         0.0000000000e+00
  6         0.0000000000e+00
  7        -9.4727563508e-02
  8         0.0000000000e+00
  9         0.0000000000e+00
 10        -2.6412602620e-01
 11         0.0000000000e+00
 12         0.0000000000e+00
 13        -7.7051649635e-02
 14         9.8078737929e-03
 15         0.0000000000e+00
 16         0.0000000000e+00
 17        -1.8213560497e-02
 18         0.0000000000e+00
 19        -5.9216101465e-02
 20         3.9982717448e-01