[Molden Format]
[Title]
generated by TRESC, imaginary part2 of MOs of job CO3
 
[Atoms] AU
 C   1   6    0.8683455824    5.9117408867    0.3946624736
 O   2   8    3.0759666602    6.0084693058    0.4150267281
 O   3   8   -1.2068755866    6.9101599458    1.3549785802
 O   4   8   -1.0934266921    4.7345528503   -0.6041387501
[GTO]
  1 0
 s  5 1.0
     1238.4016938000        0.0059599745
      186.2900499200        0.0422621111
       42.2511763500        0.1866575214
       11.6765579300        0.4675815865
        3.5930506500        0.4422897287
 s  1 1.0
        0.4024514700        1.0000000000
 s  1 1.0
        0.1309018300        1.0000000000
 p  3 1.0
        9.4680970600        0.0570294585
        2.0103545100        0.3130471495
        0.5477100500        0.7605135301
 p  1 1.0
        0.1526861400        1.0000000000
 d  1 1.0
        0.8000000000        1.0000000000
 
  2 0
 s  5 1.0
     2266.1767785000        0.0060711540
      340.8701019100        0.0417308970
       77.3631351700        0.1850777598
       21.4796449400        0.4668774046
        6.6589433100        0.4435718061
 s  1 1.0
        0.8097597600        1.0000000000
 s  1 1.0
        0.2553077200        1.0000000000
 p  3 1.0
       17.7215043200        0.0628680198
        3.8635505400        0.3334973703
        1.0480920900        0.7412421661
 p  1 1.0
        0.2764154400        1.0000000000
 d  1 1.0
        1.2000000000        1.0000000000
 
  3 0
 s  5 1.0
     2266.1767785000        0.0060711540
      340.8701019100        0.0417308970
       77.3631351700        0.1850777598
       21.4796449400        0.4668774046
        6.6589433100        0.4435718061
 s  1 1.0
        0.8097597600        1.0000000000
 s  1 1.0
        0.2553077200        1.0000000000
 p  3 1.0
       17.7215043200        0.0628680198
        3.8635505400        0.3334973703
        1.0480920900        0.7412421661
 p  1 1.0
        0.2764154400        1.0000000000
 d  1 1.0
        1.2000000000        1.0000000000
 
  4 0
 s  5 1.0
     2266.1767785000        0.0060711540
      340.8701019100        0.0417308970
       77.3631351700        0.1850777598
       21.4796449400        0.4668774046
        6.6589433100        0.4435718061
 s  1 1.0
        0.8097597600        1.0000000000
 s  1 1.0
        0.2553077200        1.0000000000
 p  3 1.0
       17.7215043200        0.0628680198
        3.8635505400        0.3334973703
        1.0480920900        0.7412421661
 p  1 1.0
        0.2764154400        1.0000000000
 d  1 1.0
        1.2000000000        1.0000000000
 
[5D]
[7F]
[9G]
[MO]
 Ene=   0.94095565603450E+00
 Spin= Alpha
 Occup=    0.000000
   1     -0.001018903267
   2     -0.002124736795
   3     -0.161692327742
   4      0.000128943374
   5      0.015288067398
   6      0.000687316191
   7      0.001298252740
   8      0.137404794545
   9      0.006042784482
  10      0.057609903764
  11     -0.001841755785
  12      0.026071216933
  13      0.014097325462
  14      0.000854596942
  15     -0.005970248921
  16      0.029131651160
  17     -0.050459508239
  18      0.000653073299
  19      0.076024640702
  20      0.003223802305
  21     -0.000909350568
  22     -0.099730239186
  23     -0.004182083479
  24      0.008771008340
  25     -0.000230164652
  26      0.003473917723
  27      0.007195481647
  28      0.000610378013
  29      0.013261224170
  30     -0.080401464577
  31      0.188438950125
  32     -0.448394631015
  33      0.008310184889
  34      0.324570125598
  35      0.586828749065
  36      0.022512523201
  37     -0.473965682803
  38      0.024107741330
  39      0.005355020079
  40      0.008330118940
  41      0.016928717487
  42      0.000892724991
  43      0.013287876788
  44     -0.080564741322
  45      0.188604593763
  46      0.449068267582
  47      0.028350776787
  48     -0.323229622217
  49     -0.586912975848
  50     -0.008083664766
  51      0.474859565389
  52      0.023866914471
  53     -0.006532831569
  54      0.007808287546
  55      0.016913627282
  56      0.001949605112
 Ene=   0.94095565603451E+00
 Spin= Alpha
 Occup=    0.000000
   1      0.000947250669
   2      0.001979910103
   3      0.150354139347
   4     -0.000078043067
   5     -0.014224818831
   6     -0.000422222332
   7     -0.000303184916
   8     -0.127731428396
   9     -0.006649099388
  10     -0.000398288728
  11      0.000799811405
  12     -0.017751896242
  13      0.017507232450
  14      0.001583855871
  15      0.005551649428
  16     -0.027088470170
  17      0.046917368060
  18     -0.001365425834
  19     -0.070635513267
  20     -0.004183956702
  21      0.001405401109
  22      0.092646216262
  23      0.005929639054
  24      0.002150010821
  25      0.000048800287
  26     -0.001970736268
  27     -0.000766715239
  28      0.000000120999
  29     -0.012397877715
  30      0.075108033615
  31     -0.175355578978
  32     -0.007270791513
  33     -0.020156820453
  34      0.080305925286
  35      0.035377864493
  36     -0.004294278880
  37     -0.082724457715
  38      0.004488912988
  39     -0.001708639836
  40     -0.004332529658
  41     -0.000006448509
  42     -0.002856197018
  43     -0.012288388305
  44      0.074565325126
  45     -0.175242211503
  46      0.008993694976
  47     -0.013929071036
  48     -0.082148573327
  49     -0.038451004932
  50     -0.009122616662
  51      0.082551512605
  52      0.004536221763
  53      0.001966155744
  54     -0.004121810582
  55     -0.000597874739
  56      0.002775317882
 Ene=   0.97585730125607E+00
 Spin= Alpha
 Occup=    0.000000
   1     -0.000008854102
   2      0.000133475541
   3      0.000046761266
   4      0.000002490452
   5      0.000026114781
   6      0.000031852384
   7      0.000149358568
   8     -0.000150259112
   9     -0.000216401569
  10      0.000528441364
  11      0.000009710865
  12      0.000036811815
  13      0.000410525645
  14     -0.000015961851
  15     -0.000004804354
  16      0.000042650513
  17     -0.000072264172
  18      0.000123120640
  19     -0.000111312162
  20     -0.000379553270
  21     -0.000203601745
  22      0.000261218561
  23      0.000558807605
  24      0.000110716644
  25     -0.000008037651
  26      0.000014807963
  27      0.000062231728
  28      0.000020430614
  29     -0.000006554406
  30      0.000043615464
  31     -0.000056702475
  32     -0.004548632036
  33     -0.000278913376
  34      0.003982761909
  35      0.006005120795
  36      0.000265200115
  37     -0.005227826615
  38      0.000296810037
  39      0.000027945543
  40      0.000057044439
  41      0.000144758788
  42     -0.000034168179
  43      0.000021607641
  44     -0.000107890230
  45      0.000048472221
  46      0.004556593782
  47     -0.000091846905
  48     -0.003796597358
  49     -0.006121503615
  50      0.000094050803
  51      0.005133528887
  52      0.000295238187
  53     -0.000040828744
  54      0.000051720156
  55      0.000131074356
  56      0.000051205399
 Ene=   0.97585730125607E+00
 Spin= Alpha
 Occup=    0.000000
   1     -0.000674475620
   2      0.010170983761
   3      0.003596850697
   4      0.000233455139
   5      0.002065239665
   6      0.000577719476
   7      0.000805114653
   8     -0.011933104160
   9     -0.002887918916
  10     -0.003203110991
  11      0.000131857939
  12     -0.002528191313
  13      0.006011502849
  14     -0.000125300084
  15     -0.000363105833
  16      0.003236297379
  17     -0.005511235865
  18     -0.000554856007
  19     -0.009423085866
  20     -0.005434168381
  21      0.000513674786
  22      0.021265058860
  23      0.008125842925
  24     -0.000009252759
  25     -0.000004048857
  26      0.000107429052
  27     -0.000043914629
  28      0.000189853927
  29      0.000277711323
  30     -0.000855575286
  31     -0.001434551834
  32     -0.006816253708
  33     -0.012639309229
  34     -0.007900622866
  35      0.008813097199
  36      0.011106158683
  37      0.011277012269
  38      0.000893617621
  39     -0.000584910258
  40      0.001506233428
  41     -0.001847412205
  42     -0.000739779383
  43      0.000864908208
  44     -0.004012149931
  45      0.000753874130
  46      0.007941685051
  47     -0.015018142573
  48      0.009867956146
  49     -0.010968410329
  50      0.015872008744
  51     -0.012474352020
  52      0.000945019146
  53      0.000339761939
  54      0.001496694779
  55     -0.002057844967
  56      0.000261749163
 Ene=   0.10141871430700E+01
 Spin= Alpha
 Occup=    0.000000
   1      0.000003450821
   2     -0.000073163117
   3     -0.000057769135
   4     -0.003277491379
   5      0.000164693961
   6     -0.003344463324
   7      0.004686623038
   8      0.000076893249
   9     -0.001473427283
  10      0.000086770479
  11      0.004693919829
  12      0.000265936710
  13     -0.000565284535
  14      0.005437502497
  15      0.000000753871
  16     -0.000014812651
  17      0.000054898411
  18      0.015025276531
  19     -0.000742130756
  20      0.015026952970
  21     -0.022043553775
  22      0.000939999287
  23     -0.019717395855
  24     -0.000015970840
  25     -0.000841075614
  26     -0.000044390316
  27      0.000071675152
  28     -0.000728326220
  29      0.000040489597
  30     -0.001705417742
  31      0.004208573173
  32     -0.000964398302
  33     -0.010313354940
  34     -0.006042144935
  35     -0.000524753212
  36      0.021057540458
  37      0.006452186759
  38      0.000257157441
  39      0.000569975195
  40      0.000069371884
  41     -0.000405336527
  42      0.000312489271
  43     -0.000046430032
  44      0.001726187517
  45     -0.004165382224
  46     -0.000987099703
  47      0.010934268665
  48     -0.005045995331
  49     -0.000627318122
  50     -0.021621234806
  51      0.004502570946
  52     -0.000258442063
  53      0.000588326873
  54     -0.000025910524
  55      0.000348117745
  56      0.000375997134
 Ene=   0.10141871430700E+01
 Spin= Alpha
 Occup=    0.000000
   1     -0.000003816079
   2      0.000021434831
   3      0.000113876875
   4      0.096583891510
   5     -0.005661769014
   6      0.107264015778
   7     -0.041920718372
   8      0.001475234394
   9     -0.046803641240
  10     -0.002223549451
  11     -0.148522108391
  12     -0.008068425507
  13      0.015721604041
  14     -0.164644183992
  15     -0.000053759976
  16      0.000204975052
  17      0.000503728381
  18     -0.438089276042
  19      0.025647819935
  20     -0.486539327564
  21      0.606884385049
  22     -0.035581200498
  23      0.674082382045
  24      0.000361223244
  25      0.022811948613
  26      0.001239145896
  27     -0.002403049206
  28      0.025297340737
  29     -0.001400599141
  30      0.053249650793
  31     -0.129950104496
  32      0.101337867056
  33      0.321656843578
  34      0.124240468094
  35     -0.081845860470
  36     -0.653765675967
  37     -0.113913462830
  38     -0.007094299958
  39     -0.012950456008
  40     -0.002095974341
  41      0.013650281962
  42     -0.013599216919
  43      0.001278569212
  44     -0.052623700614
  45      0.128428995453
  46      0.096097996227
  47     -0.333981107466
  48      0.094681420568
  49     -0.070743515142
  50      0.663162573033
  51     -0.055109769251
  52      0.006731189634
  53     -0.013582200408
  54      0.000585107213
  55     -0.010780521074
  56     -0.015832503667
 Ene=   0.10913934900133E+01
 Spin= Alpha
 Occup=    0.000000
   1     -0.000005357988
   2      0.000079959840
   3      0.000208513578
   4     -0.000434335113
   5      0.000080488408
   6     -0.001854128378
   7     -0.004185343643
   8     -0.000863817994
   9      0.017806487113
  10     -0.000049044291
  11     -0.001243266785
  12     -0.000082808225
  13      0.000015274563
  14      0.000591756181
  15      0.000000237156
  16      0.000013363913
  17     -0.000071650483
  18     -0.007283959425
  19     -0.000402551577
  20      0.009005795836
  21      0.010658666315
  22      0.000792875644
  23     -0.016759151025
  24      0.000011477540
  25      0.000564843487
  26      0.000016501676
  27      0.000041799076
  28     -0.000577149248
  29      0.000645312436
  30     -0.004686382901
  31      0.008157964848
  32     -0.001499509276
  33      0.004111815761
  34      0.006360049901
  35     -0.002090691804
  36     -0.007984778047
  37     -0.015723328622
  38     -0.000218281324
  39     -0.000442778077
  40     -0.000361510869
  41      0.000052589505
  42      0.000161005160
  43     -0.000668055360
  44      0.004841079819
  45     -0.008518023434
  46     -0.001553347003
  47     -0.004744904839
  48      0.005991113466
  49     -0.002013937131
  50      0.009399412885
  51     -0.015031500163
  52      0.000216837641
  53     -0.000469252617
  54      0.000337844595
  55     -0.000096692681
  56      0.000154733546
 Ene=   0.10913934900133E+01
 Spin= Alpha
 Occup=    0.000000
   1     -0.000007971272
   2      0.000126599217
   3      0.000130236154
   4      0.046500960721
   5      0.001410760583
   6     -0.041760946440
   7     -0.761194317591
   8     -0.022922785637
   9      0.684016379847
  10     -0.001152221686
  11     -0.066787526951
  12     -0.002379176053
  13     -0.004645535553
  14      0.059940137614
  15     -0.000009816391
  16      0.000074906350
  17     -0.000206621485
  18     -0.579412579644
  19     -0.017466600309
  20      0.520798256704
  21      0.969296641131
  22      0.029316810596
  23     -0.871186690819
  24      0.000651914247
  25      0.040838416085
  26      0.001448694050
  27      0.002837105625
  28     -0.036644960650
  29     -0.000023574826
  30      0.000160163025
  31     -0.000226177327
  32     -0.267009212971
  33     -0.008141857746
  34      0.239899197769
  35      0.444394773929
  36      0.013521363380
  37     -0.399118290541
  38     -0.011323110309
  39     -0.022378054699
  40     -0.002129314471
  41     -0.007885232049
  42      0.019692683330
  43     -0.000000968025
  44     -0.000004635295
  45      0.000064403890
  46     -0.266654068387
  47     -0.007985558924
  48      0.239656801995
  49      0.443688802241
  50      0.013215708291
  51     -0.398611599887
  52      0.010629136991
  53     -0.022698722794
  54      0.000542652277
  55      0.004751926019
  56      0.020764224232
 Ene=   0.11292477176613E+01
 Spin= Alpha
 Occup=    0.000000
   1     -0.000004523805
   2      0.000112848303
   3      0.000253481425
   4      0.031311677857
   5     -0.001898098616
   6      0.035699113656
   7     -0.103185619988
   8      0.006398528814
   9     -0.128523293080
  10     -0.000216160378
  11     -0.010283769447
  12     -0.000603885098
  13      0.001257542204
  14     -0.012757541351
  15     -0.000003922435
  16      0.000029606401
  17     -0.000052348299
  18     -0.046467234392
  19      0.003103584355
  20     -0.062167465917
  21      0.088003756102
  22     -0.005738553688
  23      0.115174927603
  24      0.000030592416
  25      0.001976285769
  26      0.000111337110
  27     -0.000289960667
  28      0.002990055568
  29     -0.013632772624
  30      0.106602705004
  31     -0.210154506416
  32     -0.038694296986
  33     -0.054601452851
  34     -0.050717080044
  35      0.161226778059
  36      0.087734533564
  37      0.191252723766
  38      0.000403457079
  39      0.001023830638
  40      0.006835012056
  41     -0.001922294408
  42      0.000840495931
  43      0.013602695948
  44     -0.106392014960
  45      0.209612557796
  46     -0.038024143512
  47      0.059399628658
  48     -0.045338703710
  49      0.159791104300
  50     -0.107126970982
  51      0.182138863396
  52     -0.000380785902
  53      0.001677742054
  54     -0.006697598523
  55      0.001679903193
  56      0.001295695189
 Ene=   0.11292477176613E+01
 Spin= Alpha
 Occup=    0.000000
   1      0.000020020587
   2      0.000051537610
   3     -0.000974223676
   4      0.162283350948
   5     -0.009452244213
   6      0.180003979856
   7     -0.563603651289
   8      0.033103186620
   9     -0.622711965269
  10     -0.000919053175
  11     -0.056118961135
  12     -0.002902592572
  13      0.005923366729
  14     -0.061901051739
  15     -0.000033032927
  16      0.000149158132
  17     -0.000155586649
  18     -0.265193072210
  19      0.015387022945
  20     -0.292100432381
  21      0.495442222961
  22     -0.028699453964
  23      0.546234889130
  24      0.000192789205
  25      0.012211750297
  26      0.000683719270
  27     -0.001297211440
  28      0.013356388126
  29     -0.069392427604
  30      0.542909298698
  31     -1.070184906220
  32     -0.212785417701
  33     -0.278890288501
  34     -0.245295840038
  35      0.846138318675
  36      0.448829851458
  37      0.954996950066
  38      0.001369954951
  39      0.004163713188
  40      0.034763446551
  41     -0.010210351095
  42      0.005348149577
  43      0.069620443530
  44     -0.544239222481
  45      1.072351616750
  46     -0.207585765064
  47      0.303020159253
  48     -0.219075027434
  49      0.837211971760
  50     -0.545839284402
  51      0.910556749500
  52     -0.001240186083
  53      0.007351780352
  54     -0.034144761816
  55      0.008990715523
  56      0.007611797859
 Ene=   0.13149679838909E+01
 Spin= Alpha
 Occup=    0.000000
   1      0.001778410457
   2     -0.025023258928
   3     -0.063337917914
   4      0.000016917966
   5     -0.003815015303
   6     -0.000108976984
   7      0.000046281042
   8     -0.010123117538
   9     -0.000321614072
  10      0.003538128749
  11     -0.000134928472
  12      0.000034519811
  13     -0.006267695758
  14     -0.000588208725
  15      0.003478706771
  16     -0.026552974927
  17      0.071628686845
  18     -0.000040910038
  19     -0.005640704865
  20     -0.000270008213
  21     -0.000255840780
  22     -0.021066073155
  23     -0.000937876456
  24      0.000202578709
  25     -0.000033595239
  26      0.000443821892
  27     -0.000475213319
  28     -0.000046292858
  29      0.003112959545
  30     -0.020721600614
  31      0.035227314878
  32      0.002495140402
  33     -0.003657225559
  34      0.002249933088
  35     -0.004608923818
  36      0.016786880051
  37     -0.004139570027
  38      0.000157718239
  39      0.000828823263
  40     -0.000928631902
  41     -0.000152477358
  42      0.000899319843
  43      0.003175252711
  44     -0.021204622564
  45      0.036306525447
  46     -0.002593201004
  47     -0.003388116994
  48     -0.002635478689
  49      0.005224950913
  50      0.016433910877
  51      0.005987736304
  52      0.000135913680
  53     -0.000752537702
  54     -0.001038697209
  55      0.000012173120
  56     -0.000897863621
 Ene=   0.13149679838909E+01
 Spin= Alpha
 Occup=    0.000000
   1     -0.017614227649
   2      0.247843071450
   3      0.627330512446
   4     -0.000042687034
   5      0.037778739345
   6      0.001212820725
   7     -0.000370106905
   8      0.100239902345
   9      0.003720104150
  10     -0.035717009821
  11      0.001215412600
  12     -0.000429282525
  13      0.061693227724
  14      0.005790687487
  15     -0.034454909195
  16      0.262994234998
  17     -0.709446398223
  18      0.000207790751
  19      0.055862591489
  20      0.002848236284
  21      0.002738512318
  22      0.208664019634
  23      0.008902395496
  24     -0.002142168663
  25      0.000359276010
  26     -0.004411665938
  27      0.004631721066
  28      0.000412328921
  29     -0.030905725414
  30      0.205808777920
  31     -0.350208044107
  32     -0.022974105524
  33      0.036274853248
  34     -0.023946774887
  35      0.044171043172
  36     -0.166585887833
  37      0.043063074930
  38     -0.001691682235
  39     -0.008321131206
  40      0.009205452018
  41      0.001441327690
  42     -0.008819086093
  43     -0.031375833219
  44      0.209449250015
  45     -0.358299180111
  46      0.023618012670
  47      0.033504623315
  48      0.027861154407
  49     -0.049247342432
  50     -0.162484224861
  51     -0.060795129580
  52     -0.001428650431
  53      0.007555563669
  54      0.010253151345
  55     -0.000172784626
  56      0.008790826848
 Ene=   0.14001173177015E+01
 Spin= Alpha
 Occup=    0.000000
   1      0.000107573887
   2     -0.001465059124
   3     -0.003302089010
   4      0.049631838549
   5     -0.003514715938
   6      0.055092515881
   7      0.244250081838
   8     -0.017850743434
   9      0.271073300812
  10     -0.000159502124
  11     -0.022729239843
  12     -0.001527494002
  13      0.002285383304
  14     -0.025257577971
  15      0.000418736842
  16     -0.003050396478
  17      0.007875002557
  18      0.048547661065
  19     -0.003274565119
  20      0.053843697157
  21     -0.130540839667
  22      0.005627073883
  23     -0.144948242887
  24     -0.000100578565
  25     -0.011517069012
  26     -0.000634955763
  27      0.001096166603
  28     -0.012763950014
  29     -0.032793897568
  30      0.254566994126
  31     -0.596619869218
  32      0.005560152087
  33      0.046847977266
  34      0.008112269907
  35      0.099102999260
  36     -0.212134318797
  37      0.102760842052
  38     -0.004963212192
  39     -0.004854957670
  40      0.011569899849
  41      0.006467596517
  42     -0.004564998392
  43      0.032906728211
  44     -0.255332621021
  45      0.596350623391
  46      0.004654549546
  47     -0.047848558461
  48      0.003181821306
  49      0.102729241553
  50      0.201634401282
  51      0.121451565497
  52      0.004942869714
  53     -0.004079943213
  54     -0.012175416072
  55     -0.005632253415
  56     -0.005347033288
 Ene=   0.14001173177015E+01
 Spin= Alpha
 Occup=    0.000000
   1      0.000002451347
   2     -0.000027445760
   3     -0.000075124605
   4      0.002388322513
   5     -0.000154807893
   6      0.002687506907
   7      0.011492287931
   8     -0.000770183116
   9      0.013459705306
  10     -0.000011502840
  11     -0.001435519102
  12     -0.000073442952
  13      0.000094713384
  14     -0.000924990077
  15      0.000007982900
  16     -0.000059448398
  17      0.000160200649
  18      0.001919876284
  19     -0.000163172731
  20      0.003000414161
  21     -0.005655433580
  22      0.000350717800
  23     -0.007628596496
  24     -0.000004953634
  25     -0.000457547871
  26     -0.000026027766
  27      0.000064281473
  28     -0.000708818951
  29     -0.001590005038
  30      0.012343710030
  31     -0.028910791665
  32      0.000118758940
  33      0.002268764397
  34      0.000524303031
  35      0.004959280923
  36     -0.010290897705
  37      0.004836617839
  38     -0.000282333160
  39     -0.000214300622
  40      0.000557497025
  41      0.000294202322
  42     -0.000238673818
  43      0.001595001918
  44     -0.012374991599
  45      0.028921540846
  46      0.000100380291
  47     -0.002321589243
  48      0.000271643505
  49      0.005119772768
  50      0.009766815707
  51      0.005766398759
  52      0.000279740722
  53     -0.000182858771
  54     -0.000583809240
  55     -0.000245084610
  56     -0.000273599357
 Ene=   0.14833850915872E+01
 Spin= Alpha
 Occup=    0.000000
   1      0.000031061241
   2     -0.000421094804
   3     -0.000526178806
   4      0.002027000299
   5     -0.000106717863
   6     -0.001829302660
   7     -0.003501081646
   8     -0.002176470849
   9      0.003063076776
  10      0.000349908290
  11      0.035048571721
  12      0.000959596656
  13      0.002417225359
  14     -0.031433306683
  15      0.000204900315
  16     -0.001417586087
  17      0.003305701944
  18     -0.009306806686
  19     -0.000255005754
  20      0.008378497460
  21     -0.003211326073
  22     -0.000966696885
  23      0.002822126983
  24     -0.000107822302
  25     -0.007952102806
  26     -0.000308607890
  27     -0.000602808786
  28      0.007129198018
  29     -0.000057390526
  30      0.000361172594
  31     -0.000962461292
  32      0.001685515840
  33      0.000180958579
  34     -0.001698391400
  35      0.006722169604
  36      0.000043062687
  37     -0.005589357700
  38      0.007794219678
  39     -0.005858015346
  40      0.000789297780
  41      0.004061434578
  42      0.005421095395
  43     -0.000054719287
  44      0.000341743779
  45     -0.000917099469
  46      0.001861568494
  47      0.000163737312
  48     -0.001480142066
  49      0.006192148248
  50      0.000083795843
  51     -0.006020310034
  52     -0.007861996291
  53     -0.005460844219
  54     -0.001118181176
  55     -0.004955354529
  56      0.004719007626
 Ene=   0.14833850915872E+01
 Spin= Alpha
 Occup=    0.000000
   1      0.000001997931
   2     -0.000028901176
   3     -0.000034974609
   4     -0.000017361146
   5     -0.000009998019
   6     -0.000036367162
   7     -0.000568515137
   8     -0.000117039184
   9     -0.000607614658
  10      0.000005402906
  11      0.000071576667
  12     -0.000017300829
  13      0.000026260872
  14     -0.000208411465
  15      0.000014343940
  16     -0.000099457458
  17      0.000233733993
  18     -0.000318547818
  19      0.000019438964
  20     -0.000276991352
  21      0.000462303139
  22     -0.000091024200
  23      0.000537591240
  24      0.000003161111
  25      0.000036979441
  26      0.000000470791
  27     -0.000012720467
  28      0.000106034129
  29      0.000056908585
  30     -0.000406460660
  31      0.000913411301
  32      0.000035396867
  33     -0.000135485787
  34      0.000020093779
  35     -0.000092427217
  36      0.000374691323
  37     -0.000141268310
  38      0.000039659807
  39     -0.000012794095
  40     -0.000033297961
  41      0.000009217768
  42      0.000031334339
  43     -0.000065578599
  44      0.000460643911
  45     -0.001053403368
  46      0.000052385083
  47      0.000148157327
  48      0.000048717737
  49     -0.000130799179
  50     -0.000377767484
  51     -0.000213516290
  52     -0.000035836259
  53     -0.000008963856
  54      0.000038131274
  55     -0.000025432262
  56      0.000036941543
 Ene=   0.15086367941585E+01
 Spin= Alpha
 Occup=    0.000000
   1      0.000086426366
   2     -0.002160656975
   3     -0.001467334143
   4      0.000000991157
   5     -0.001417179047
   6     -0.000057727235
   7     -0.000140591952
   8     -0.018827541883
   9     -0.000732771720
  10     -0.003466047889
  11      0.000181248594
  12     -0.002102423370
  13     -0.001919906924
  14     -0.000208359221
  15      0.001485182374
  16     -0.010407106289
  17      0.025899463949
  18     -0.000008500399
  19      0.001572556159
  20      0.000120827565
  21     -0.000080699403
  22     -0.007647257196
  23     -0.000394158711
  24     -0.000229914277
  25     -0.000000749109
  26     -0.000390023507
  27     -0.000672372738
  28     -0.000046633512
  29     -0.000759508549
  30      0.004821783338
  31     -0.011197315983
  32     -0.001106866939
  33      0.000966958603
  34     -0.001447752317
  35      0.003052068953
  36     -0.002293982801
  37      0.002066918355
  38      0.000446028083
  39     -0.001043952272
  40      0.000222159994
  41     -0.000325695201
  42      0.000011106393
  43     -0.000747734759
  44      0.004726303915
  45     -0.010954329844
  46      0.001116835276
  47      0.000778703417
  48      0.001552261161
  49     -0.003019080971
  50     -0.001935398830
  51     -0.002274508647
  52      0.000457069675
  53      0.000972842728
  54      0.000302419328
  55     -0.000355641348
  56     -0.000057202937
 Ene=   0.15086367941585E+01
 Spin= Alpha
 Occup=    0.000000
   1     -0.000045440200
   2      0.001138067997
   3      0.000771415722
   4      0.000255273655
   5      0.000735002302
   6      0.000218255011
   7      0.001517457561
   8      0.009807594378
   9      0.002513848189
  10      0.000174757933
  11      0.000215036924
  12      0.000912748018
  13      0.000111447545
  14     -0.000602886073
  15     -0.000782192290
  16      0.005480761428
  17     -0.013638018067
  18      0.000129916932
  19     -0.000867680602
  20      0.000778027192
  21     -0.000703416977
  22      0.004092194060
  23     -0.001098571068
  24     -0.000109594974
  25     -0.000166403882
  26      0.000170504835
  27      0.000222837175
  28      0.000031748945
  29      0.000258085467
  30     -0.001388072389
  31      0.002981996070
  32      0.000734393528
  33      0.000024870806
  34      0.001010690266
  35     -0.000949042445
  36     -0.000345244620
  37     -0.001426156288
  38     -0.000076964121
  39      0.000144596067
  40     -0.000053244666
  41      0.000312031670
  42      0.000301325581
  43      0.000536166821
  44     -0.003643062904
  45      0.008685411284
  46     -0.000569887394
  47     -0.000972172150
  48     -0.000509781221
  49      0.001728527488
  50      0.002569098889
  51      0.001494630015
  52     -0.000206888314
  53     -0.000382685866
  54     -0.000210577249
  55      0.000152970833
  56     -0.000155465151
 Ene=   0.15153358954511E+01
 Spin= Alpha
 Occup=    0.000000
   1      0.000000733331
   2     -0.000019116595
   3     -0.000007860606
   4     -0.000005196425
   5     -0.000017414427
   6      0.000072830127
   7      0.000229448314
   8     -0.000190787547
   9      0.000168401331
  10      0.488430583125
  11     -0.008420814607
  12      0.059633520387
  13      0.280975614033
  14      0.024653049993
  15      0.000013612743
  16     -0.000095784665
  17      0.000241650294
  18      0.000187786708
  19      0.000016875927
  20     -0.000108558872
  21     -0.000034642270
  22     -0.000062590096
  23     -0.000167625931
  24      0.065987399697
  25     -0.000917817121
  26      0.008062516197
  27      0.037971071000
  28      0.003099976819
  29     -0.000024917755
  30      0.000196821398
  31     -0.000500407132
  32      0.015320811521
  33      0.000507783712
  34     -0.013771129683
  35     -0.115245234231
  36     -0.003681538324
  37      0.103735544317
  38     -0.031608254974
  39      0.079114194642
  40     -0.001213227821
  41     -0.013439138003