[Molden Format]
[Title]
generated by TRESC, imaginary part1 of MOs of job CO3
 
[Atoms] AU
 C   1   6    0.8683455824    5.9117408867    0.3946624736
 O   2   8    3.0759666602    6.0084693058    0.4150267281
 O   3   8   -1.2068755866    6.9101599458    1.3549785802
 O   4   8   -1.0934266921    4.7345528503   -0.6041387501
[GTO]
  1 0
 s  5 1.0
     1238.4016938000        0.0059599745
      186.2900499200        0.0422621111
       42.2511763500        0.1866575214
       11.6765579300        0.4675815865
        3.5930506500        0.4422897287
 s  1 1.0
        0.4024514700        1.0000000000
 s  1 1.0
        0.1309018300        1.0000000000
 p  3 1.0
        9.4680970600        0.0570294585
        2.0103545100        0.3130471495
        0.5477100500        0.7605135301
 p  1 1.0
        0.1526861400        1.0000000000
 d  1 1.0
        0.8000000000        1.0000000000
 
  2 0
 s  5 1.0
     2266.1767785000        0.0060711540
      340.8701019100        0.0417308970
       77.3631351700        0.1850777598
       21.4796449400        0.4668774046
        6.6589433100        0.4435718061
 s  1 1.0
        0.8097597600        1.0000000000
 s  1 1.0
        0.2553077200        1.0000000000
 p  3 1.0
       17.7215043200        0.0628680198
        3.8635505400        0.3334973703
        1.0480920900        0.7412421661
 p  1 1.0
        0.2764154400        1.0000000000
 d  1 1.0
        1.2000000000        1.0000000000
 
  3 0
 s  5 1.0
     2266.1767785000        0.0060711540
      340.8701019100        0.0417308970
       77.3631351700        0.1850777598
       21.4796449400        0.4668774046
        6.6589433100        0.4435718061
 s  1 1.0
        0.8097597600        1.0000000000
 s  1 1.0
        0.2553077200        1.0000000000
 p  3 1.0
       17.7215043200        0.0628680198
        3.8635505400        0.3334973703
        1.0480920900        0.7412421661
 p  1 1.0
        0.2764154400        1.0000000000
 d  1 1.0
        1.2000000000        1.0000000000
 
  4 0
 s  5 1.0
     2266.1767785000        0.0060711540
      340.8701019100        0.0417308970
       77.3631351700        0.1850777598
       21.4796449400        0.4668774046
        6.6589433100        0.4435718061
 s  1 1.0
        0.8097597600        1.0000000000
 s  1 1.0
        0.2553077200        1.0000000000
 p  3 1.0
       17.7215043200        0.0628680198
        3.8635505400        0.3334973703
        1.0480920900        0.7412421661
 p  1 1.0
        0.2764154400        1.0000000000
 d  1 1.0
        1.2000000000        1.0000000000
 
[5D]
[7F]
[9G]
[MO]
 Ene=  -0.19360605709078E+02
 Spin= Alpha
 Occup=    0.000339
   1     -0.000000022216
   2     -0.000000074419
   3     -0.000000947489
   4     -0.000000179937
   5      0.000000060126
   6     -0.000000208415
   7     -0.000002194382
   8      0.000001156938
   9     -0.000002372472
  10     -0.000000101572
  11     -0.000000553658
  12     -0.000000036362
  13      0.000000103721
  14     -0.000000624207
  15      0.000000115531
  16      0.000000047356
  17     -0.000000421309
  18     -0.000000062538
  19      0.000000025200
  20     -0.000000062196
  21      0.000000875927
  22     -0.000000013462
  23      0.000000964310
  24      0.000000033831
  25     -0.000000240929
  26     -0.000000015073
  27      0.000000032202
  28     -0.000000268826
  29     -0.000320882015
  30     -0.000014531378
  31      0.000010919189
  32      0.000000270820
  33     -0.000000696375
  34      0.000000553541
  35     -0.000001590815
  36      0.000001805194
  37     -0.000001882726
  38     -0.000000228522
  39      0.000000010471
  40      0.000000137333
  41     -0.000000280918
  42      0.000000093441
  43      0.000240746362
  44      0.000010805447
  45     -0.000007909819
  46      0.000000309991
  47      0.000000499790
  48      0.000000261761
  49     -0.000001455924
  50     -0.000001023540
  51     -0.000001582321
  52     -0.000000216038
  53      0.000000133800
  54     -0.000000204109
  55      0.000000030721
  56      0.000000052780
 Ene=  -0.19360605709078E+02
 Spin= Alpha
 Occup=    0.999661
   1      0.000014550261
   2      0.000050985031
   3      0.000665449126
   4     -0.000003201447
   5     -0.000034579349
   6     -0.000004766268
   7     -0.000040378791
   8     -0.000716808272
   9     -0.000068980838
  10      0.000029339749
  11     -0.000009478475
  12      0.000000247178
  13     -0.000050156382
  14     -0.000014125772
  15     -0.000013501175
  16     -0.000029231411
  17      0.000290288409
  18     -0.000001074453
  19     -0.000015545658
  20     -0.000001688603
  21      0.000013180594
  22     -0.000025644340
  23      0.000013822358
  24     -0.000005142646
  25     -0.000003742238
  26      0.000003638163
  27      0.000008385579
  28     -0.000003437195
  29      0.023774087035
  30      0.001111246442
  31     -0.000908678347
  32     -0.000050384424
  33      0.000048355774
  34     -0.000054320761
  35      0.000073512137
  36     -0.000193488309
  37      0.000075140746
  38      0.000003473050
  39      0.000005480846
  40      0.000010372116
  41     -0.000008492919
  42      0.000005682394
  43      0.032444487954
  44      0.001502272199
  45     -0.001198622392
  46      0.000061686776
  47      0.000059823320
  48      0.000070651005
  49     -0.000125319488
  50     -0.000225030097
  51     -0.000147070063
  52      0.000001892135
  53     -0.000003757158
  54      0.000004332932
  55     -0.000003912482
  56     -0.000004374481
 Ene=  -0.19360444360560E+02
 Spin= Alpha
 Occup=    0.000105
   1      0.000000164899
   2      0.000000571465
   3      0.000007429758
   4     -0.000000219757
   5     -0.000000377520
   6     -0.000000225136
   7     -0.000002391048
   8     -0.000007892447
   9     -0.000003017076
  10      0.000000299220
  11     -0.000000635986
  12     -0.000000028646
  13     -0.000000512992
  14     -0.000000702660
  15     -0.000000389674
  16     -0.000000339555
  17      0.000003249830
  18     -0.000000054757
  19     -0.000000168153
  20     -0.000000088897
  21      0.000000921865
  22     -0.000000333447
  23      0.000001044938
  24     -0.000000049894
  25     -0.000000264552
  26      0.000000030711
  27      0.000000121511
  28     -0.000000278432
  29      0.000011126749
  30      0.000000933779
  31     -0.000001619142
  32     -0.000000165523
  33     -0.000000016739
  34     -0.000000384284
  35     -0.000000625702
  36     -0.000000804844
  37     -0.000000613304
  38      0.000000165554
  39      0.000000102301
  40      0.000000292193
  41     -0.000000170713
  42      0.000000130637
  43      0.000616971688
  44      0.000028259462
  45     -0.000021919108
  46      0.000001162782
  47      0.000001189086
  48      0.000001001062
  49     -0.000002915432
  50     -0.000003707166
  51     -0.000003171429
  52     -0.000000254502
  53      0.000000056542
  54     -0.000000136107
  55     -0.000000070208
  56     -0.000000001359
 Ene=  -0.19360444360560E+02
 Spin= Alpha
 Occup=    0.999895
   1      0.000089505993
   2      0.000314927987
   3      0.004112565149
   4     -0.000349250981
   5     -0.000195589744
   6     -0.000395102905
   7     -0.004146759067
   8     -0.004197515851
   9     -0.004754440739
  10      0.000163966501
  11     -0.001057698215
  12     -0.000051650682
  13     -0.000200986539
  14     -0.001193434593
  15     -0.000103067042
  16     -0.000181168725
  17      0.001788280275
  18     -0.000112935969
  19     -0.000089078912
  20     -0.000128655367
  21      0.001631607414
  22     -0.000246976178
  23      0.001807008640
  24     -0.000038436234
  25     -0.000453605411
  26     -0.000000765883
  27      0.000097167829
  28     -0.000498735804
  29     -0.352444544686
  30     -0.015659238372
  31      0.011128599599
  32      0.000272456626
  33     -0.000793211810
  34      0.000276435714
  35     -0.002278633090
  36      0.001466343222
  37     -0.002485497761
  38      0.000112718576
  39      0.000137179074
  40      0.000389956213
  41     -0.000287522248
  42      0.000147912718
  43      0.699987876647
  44      0.031811428586
  45     -0.024146087521
  46      0.000984049463
  47      0.001390524309
  48      0.001141491769
  49     -0.003554350012
  50     -0.003732249120
  51     -0.004079709453
  52     -0.000075453295
  53      0.000114859394
  54     -0.000286132877
  55      0.000184009265
  56      0.000129779446
 Ene=  -0.19273456588017E+02
 Spin= Alpha
 Occup=    0.000000
   1      0.000000022140
   2      0.000000117481
   3      0.000000470347
   4     -0.000000004489
   5     -0.000000050774
   6     -0.000000002048
   7      0.000000013064
   8      0.000001039977
   9      0.000000044174
  10      0.000000116118
  11      0.000000002123
  12     -0.000000002483
  13     -0.000000123214
  14     -0.000000012216
  15      0.000050284504
  16      0.000002406670
  17     -0.000002070003
  18      0.000000010451
  19     -0.000000196131
  20     -0.000000009048
  21     -0.000000002706
  22      0.000000431042
  23      0.000000019485
  24     -0.000000123117
  25      0.000000000518
  26     -0.000000012885
  27     -0.000000024868
  28      0.000000000726
  29     -0.000000132819
  30     -0.000000035005
  31      0.000000318761
  32      0.000000001578
  33      0.000000012907
  34      0.000000001509
  35     -0.000000060684
  36     -0.000000009059
  37     -0.000000075845
  38     -0.000000009920
  39     -0.000000001601
  40      0.000000001968
  41     -0.000000026616
  42     -0.000000030492
  43      0.000000164064
  44     -0.000000023032
  45      0.000000308092
  46      0.000000000934
  47      0.000000012786
  48     -0.000000000713
  49      0.000000055103
  50     -0.000000017893
  51      0.000000071642
  52     -0.000000009694
  53     -0.000000001015
  54      0.000000002184
  55     -0.000000030887
  56      0.000000025771
 Ene=  -0.19273456588017E+02
 Spin= Alpha
 Occup=    1.000000
   1      0.000187056493
   2      0.000991591165
   3      0.003972962474
   4     -0.000004178422
   5     -0.000429021202
   6     -0.000018960587
   7      0.000080418958
   8      0.008784710101
   9      0.000384255750
  10      0.000702968214
  11     -0.000019596573
  12     -0.000056872327
  13     -0.001201307443
  14     -0.000104937314
  15      0.424725379944
  16      0.020327739696
  17     -0.017484730202
  18     -0.000015328149
  19     -0.001656560478
  20     -0.000072950544
  21      0.000033786011
  22      0.003640907880
  23      0.000159892638
  24     -0.000170492104
  25      0.000005201629
  26      0.000003571438
  27      0.000293526085
  28      0.000025755362
  29      0.000174428088
  30     -0.000244449219
  31      0.002650608458
  32      0.000008562987
  33      0.000108120016
  34      0.000013119496
  35     -0.000531223120
  36     -0.000083024218
  37     -0.000593474046
  38      0.000079355187
  39     -0.000124094014
  40      0.000032130805
  41     -0.000135617112
  42     -0.000146052927
  43      0.000157123025
  44     -0.000244354477
  45      0.002644293771
  46     -0.000006854506
  47      0.000108728825
  48     -0.000004012858
  49      0.000528302768
  50     -0.000145658907
  51      0.000583089279
  52      0.000083236805
  53      0.000114856040
  54      0.000044740420
  55     -0.000161227135
  56      0.000118814757
 Ene=  -0.10457463035036E+02
 Spin= Alpha
 Occup=    1.000000
   1     -0.986999830660
   2     -0.054724915097
   3      0.000810807948
   4      0.000002270134
   5      0.000499478674
   6      0.000019910009
   7     -0.000031975243
   8     -0.003269028554
   9     -0.000144479660
  10      0.003144833803
  11     -0.000027464940
  12     -0.001538485203
  13     -0.005103154640
  14     -0.000431671690
  15      0.000192955349
  16     -0.000243382841
  17      0.015191999224
  18     -0.000018870267
  19     -0.002011932002
  20     -0.000088416617
  21     -0.000095347623
  22     -0.010369981007
  23     -0.000454183775
  24     -0.000844849328
  25      0.000024106577
  26      0.000073952476
  27      0.001442568225
  28      0.000126416904
  29     -0.000119066808
  30     -0.000336219438
  31      0.005660179555
  32     -0.000553057829
  33      0.001156599168
  34     -0.000576241620
  35     -0.002043328833
  36      0.005767765174
  37     -0.002079109881
  38     -0.000609537529
  39     -0.001456485928
  40      0.000702817679
  41      0.001001280950
  42     -0.001528205035
  43     -0.000119096863
  44     -0.000340468144
  45      0.005643718074
  46      0.000571945293
  47      0.001087382869
  48      0.000672941425
  49      0.002144580129
  50      0.005514201335
  51      0.002571205741
  52     -0.000563148053
  53      0.001422373183
  54      0.000859302575
  55      0.000692788582
  56      0.001663095766
 Ene=  -0.10457463035036E+02
 Spin= Alpha
 Occup=    0.000000
   1      0.000044191177
   2      0.000002450207
   3     -0.000000036386
   4      0.000000004272
   5     -0.000000022333
   6      0.000000000362
   7      0.000000001206
   8      0.000000146527
   9      0.000000008406
  10     -0.000000192664
  11     -0.000000010300
  12      0.000000061575
  13      0.000000198508
  14      0.000000019115
  15     -0.000000008637
  16      0.000000010935
  17     -0.000000680427
  18      0.000000005790
  19      0.000000090109
  20      0.000000002699
  21      0.000000001679
  22      0.000000464426
  23      0.000000019971
  24      0.000000085976
  25      0.000000009279
  26      0.000000003072
  27     -0.000000036793
  28     -0.000000006220
  29      0.000000008260
  30      0.000000014130
  31     -0.000000257978
  32      0.000000060851
  33     -0.000000053073
  34     -0.000000008049
  35      0.000000061162
  36     -0.000000259900
  37      0.000000125313
  38      0.000000090583
  39     -0.000000006971
  40     -0.000000027328
  41     -0.000000010353
  42      0.000000138695
  43      0.000000002778
  44      0.000000015920
  45     -0.000000247688
  46     -0.000000067228
  47     -0.000000047492
  48      0.000000006200
  49     -0.000000059544
  50     -0.000000245382
  51     -0.000000142769
  52      0.000000094455
  53      0.000000015167
  54     -0.000000026027
  55      0.000000010769
  56     -0.000000140361
 Ene=  -0.13017599933828E+01
 Spin= Alpha
 Occup=    0.000000
   1     -0.000006975199
   2      0.000013631852
   3     -0.000000886645
   4      0.000001237145
   5     -0.000007012133
   6     -0.000000732828
   7     -0.000000650157
   8      0.000001402338
   9      0.000000056390
  10      0.000001011394
  11     -0.000000104481
  12      0.000000609665
  13      0.000002397872
  14      0.000000119623
  15     -0.000001696891
  16      0.000003261970
  17      0.000000843803
  18      0.000001090204
  19     -0.000001369634
  20     -0.000000303986
  21      0.000000124476
  22     -0.000000195912
  23      0.000000016296
  24     -0.000000113250
  25     -0.000000026616
  26     -0.000000030043
  27      0.000000019361
  28     -0.000000013253
  29     -0.000008266133
  30      0.000016254948
  31      0.000009161370
  32      0.000069731857
  33      0.000003625580
  34     -0.000072053711
  35     -0.000004733361
  36      0.000001276129
  37      0.000002238043
  38     -0.000001244562
  39      0.000001014861
  40      0.000000575933
  41     -0.000000864100
  42     -0.000001434079
  43     -0.000008467169
  44      0.000016552384
  45      0.000010009827
  46     -0.000074734109
  47      0.000003139184
  48      0.000073658919
  49      0.000005554912
  50      0.000001037151
  51     -0.000001503686
  52     -0.000001481896
  53     -0.000001034018
  54      0.000000547188
  55     -0.000001059172
  56      0.000001398551
 Ene=  -0.13017599933828E+01
 Spin= Alpha
 Occup=    1.000000
   1      0.116976484888
   2     -0.228614422814
   3      0.014888098345
   4      0.001035514636
   5      0.117675744519
   6      0.005090634403
   7     -0.000217271403
   8     -0.023414779958
   9     -0.001021955334
  10      0.013758972022
  11     -0.000129458761
  12     -0.006541168694
  13     -0.022366819705
  14     -0.001895976929
  15      0.028489441593
  16     -0.054780827505
  17     -0.014186927052
  18      0.000208665184
  19      0.023008296730
  20      0.000988045589
  21      0.000030620266
  22      0.003265239987
  23      0.000144586868
  24      0.000576090760
  25     -0.000031993960
  26      0.000315289423
  27     -0.001060946223
  28     -0.000095586570
  29      0.140413197782
  30     -0.275304571850
  31     -0.160837537298
  32      0.064603004783
  33     -0.060706108700
  34      0.069861359417
  35      0.022834784139
  36     -0.021004817905
  37      0.024692607811
  38     -0.000051725683
  39      0.004699209246
  40     -0.011986669719
  41      0.002342593677
  42      0.004942444776
  43      0.140230037129
  44     -0.274942350918
  45     -0.160687095438
  46     -0.065614027117
  47     -0.053111569363
  48     -0.074745569107
  49     -0.023210591590
  50     -0.018308304930
  51     -0.026439947112
  52     -0.000191558463
  53     -0.003565993816
  54     -0.012437347895
  55      0.003235779135
  56     -0.004219416868
 Ene=  -0.11393378128600E+01
 Spin= Alpha
 Occup=    0.000001
   1     -0.000026060015
   2      0.000052150126
   3      0.000005158443
   4     -0.000002351457
   5      0.000059062326
   6      0.000003001150
   7      0.000001453209
   8      0.000004777627
   9      0.000000037151
  10     -0.000003202798
  11      0.000000203509
  12     -0.000000505406
  13      0.000003613041
  14      0.000000424392
  15     -0.000055189936
  16      0.000108977752
  17      0.000051671997
  18      0.000006851807
  19     -0.000039070468
  20     -0.000003014246
  21     -0.000000401046
  22     -0.000005781560
  23     -0.000000211616
  24     -0.000001769712
  25     -0.000000174043
  26     -0.000000266195
  27      0.000003198440
  28      0.000000346740
  29      0.000008856224
  30     -0.000018231703
  31     -0.000008919053
  32     -0.000020042452
  33      0.000000004566
  34      0.000027898187
  35      0.000000907913
  36      0.000000583220
  37      0.000001720076
  38      0.000000142880
  39     -0.000000361599
  40     -0.000000929418
  41      0.000001055666
  42      0.000000479656
  43      0.000008494513
  44     -0.000017381530
  45     -0.000008754085
  46      0.000019707077
  47      0.000000888854
  48     -0.000027563626
  49     -0.000001815771
  50      0.000000780356
  51     -0.000001824664
  52      0.000000187106
  53      0.000000357307
  54     -0.000000968906
  55      0.000001067278
  56     -0.000000349966
 Ene=  -0.11393378128600E+01
 Spin= Alpha
 Occup=    0.999999
   1      0.027129130997
   2     -0.054289119410
   3     -0.005369108338
   4     -0.000565787639
   5     -0.061476673185
   6     -0.002596600840
   7     -0.000047170278
   8     -0.004976403462
   9     -0.000251149831
  10      0.002434710048
  11     -0.000101568150
  12      0.000420889872
  13     -0.004290918122
  14     -0.000385550773
  15      0.057450727550
  16     -0.113441196822
  17     -0.053789598346
  18      0.000377573202
  19      0.040669771389
  20      0.001581784854
  21      0.000057355469
  22      0.006022152113
  23      0.000267486186
  24      0.001882927888
  25     -0.000073214158
  26      0.000270908595
  27     -0.003307722008
  28     -0.000286640243
  29     -0.009043263487
  30      0.018564335631
  31      0.009202232083
  32     -0.005106877493
  33     -0.000194347096
  34     -0.005679470560
  35     -0.001552146502
  36     -0.000614401283
  37     -0.001740403308
  38      0.000338955169
  39     -0.000105517315
  40      0.001044699393
  41     -0.000802492003
  42     -0.000131896545
  43     -0.009015511753
  44      0.018502888132
  45      0.009192204730
  46      0.005087120669
  47     -0.000745954957
  48      0.005643473265
  49      0.001551440231
  50     -0.000789667956
  51      0.001706355177
  52      0.000338972501
  53     -0.000010779643
  54      0.001051743648
  55     -0.000810610088
  56     -0.000026655058
 Ene=  -0.98188459864817E+00
 Spin= Alpha
 Occup=    0.000002
   1     -0.000000200758
   2      0.000000092088
   3      0.000000007367
   4     -0.000041722394
   5      0.000006660104
   6     -0.000169896925
   7     -0.000009808173
   8      0.000000119695
   9     -0.000005613721
  10      0.000000335720
  11      0.000015844334
  12      0.000000970627
  13     -0.000002005300
  14      0.000021140422
  15     -0.000000212528
  16      0.000000377499
  17      0.000000925521
  18      0.000017294518
  19      0.000001010022
  20     -0.000046479521
  21     -0.000002301806
  22     -0.000000041476
  23     -0.000010006351
  24     -0.000000062476
  25      0.000001985609
  26      0.000000114103
  27     -0.000000276677
  28      0.000004441723
  29      0.000156292114
  30     -0.000323031156
  31     -0.000225290084
  32      0.000018431046
  33     -0.000066227836
  34     -0.000031132737
  35      0.000005456310
  36     -0.000028749977
  37     -0.000006388591
  38      0.000001007570
  39      0.000002470240
  40      0.000000299341
  41     -0.000006018001
  42      0.000001327804
  43     -0.000157261442
  44      0.000324919623
  45      0.000226378946
  46      0.000010398693
  47      0.000067859982
  48     -0.000023208017
  49      0.000005319691
  50      0.000029038826
  51     -0.000003761565
  52     -0.000000986636
  53      0.000002393339
  54     -0.000000180987
  55      0.000005668102
  56      0.000002333359
 Ene=  -0.98188459864817E+00
 Spin= Alpha
 Occup=    0.999998
   1     -0.000016867861
   2      0.000040709378
   3      0.000011933374
   4      0.065182658166
   5     -0.003772573329
   6      0.072386671255
   7      0.004532518501
   8     -0.000275148008
   9      0.005032893543
  10     -0.000177843556
  11     -0.011137046898
  12     -0.000606330328
  13      0.001192539794
  14     -0.012345776961
  15      0.000004900301
  16     -0.000009927128
  17     -0.000014709306
  18      0.009708621590
  19     -0.000533017944
  20      0.010783014907
  21      0.003787559324
  22     -0.000206892169
  23      0.004206562737
  24     -0.000029392339
  25     -0.001955385032
  26     -0.000105341538
  27      0.000204374149
  28     -0.002167937440
  29     -0.098971163363
  30      0.204528484093
  31      0.142548342917
  32      0.004900559510
  33      0.042140067183
  34      0.006759505362
  35      0.000263742719
  36      0.018246187477
  37      0.000901557661
  38     -0.001756867128
  39     -0.001193595593
  40     -0.000357755813
  41      0.003192397062
  42     -0.001129118871
  43      0.099109961376
  44     -0.204800722531
  45     -0.142783819569
  46      0.004041265349
  47     -0.042573033730
  48      0.003173451133
  49     -0.000114400218
  50     -0.018257931753
  51     -0.000736058394
  52      0.001711703394
  53     -0.001330327815
  54      0.000209448674
  55     -0.002914297797
  56     -0.001668628583
 Ene=  -0.64951709063355E+00
 Spin= Alpha
 Occup=    0.999992
   1      0.056547266978
   2     -0.140340432558
   3     -0.018180912980
   4      0.000166320413
   5      0.069259490248
   6      0.003184765896
   7     -0.000105221484
   8      0.003043613581
   9      0.000267844069
  10      0.001938280655
  11      0.000122805087
  12     -0.002894369092
  13     -0.002729304132
  14     -0.000256891916
  15     -0.025182563970
  16      0.052677093344
  17      0.049373885601
  18      0.000085245428
  19      0.028523865209
  20      0.001161475094
  21      0.000050707148
  22      0.014181127419
  23      0.000600778880
  24      0.000667326039
  25      0.000001757381
  26     -0.000060999906
  27     -0.001137767792
  28     -0.000106113401
  29     -0.037288154492
  30      0.076782757999
  31      0.083945273332
  32      0.025302384470
  33     -0.113424847025
  34      0.025756891879
  35      0.009109789805
  36     -0.057765478267
  37      0.008802101016
  38      0.001703949022
  39      0.004547855286
  40      0.000366724812
  41     -0.003247872961
  42      0.004900307998
  43     -0.037242151036
  44      0.076725101299
  45      0.083704398162
  46     -0.028076760256
  47     -0.110349680404
  48     -0.033533663838
  49     -0.010641477138
  50     -0.056575283704
  51     -0.013134321243
  52      0.001477656683
  53     -0.004683114342
  54     -0.000145887817
  55     -0.002295063869
  56     -0.005337476936
 Ene=  -0.64951709063354E+00
 Spin= Alpha
 Occup=    0.000008
   1     -0.000138063096
   2      0.000342636215
   3      0.000044399439
   4      0.000013738752
   5     -0.000168271156
   6     -0.000027675162
   7      0.000007864429
   8     -0.000007219476
   9     -0.000007680533
  10     -0.000013987580
  11     -0.000002718473
  12      0.000005862204
  13      0.000001151718
  14      0.000002512636
  15      0.000061521192
  16     -0.000128688400
  17     -0.000120608732
  18     -0.000000800751
  19     -0.000069385625
  20     -0.000009475048
  21      0.000000074771
  22     -0.000034523044
  23     -0.000004405492
  24     -0.000001556836
  25     -0.000000577423
  26      0.000000142712
  27      0.000002761522
  28      0.000001131175
  29      0.000091315308
  30     -0.000188547641
  31     -0.000203681230
  32     -0.000196262997
  33      0.000274480054
  34      0.000073410103
  35     -0.000060450365
  36      0.000139792630
  37      0.000014117403
  38     -0.000003963463
  39     -0.000014178915
  40     -0.000000894069
  41      0.000007789495
  42     -0.000008947566
  43      0.000090562016
  44     -0.000186046551
  45     -0.000205451645
  46      0.000288973296
  47      0.000273615895
  48     -0.000101846464
  49      0.000095912953
  50      0.000140390558
  51     -0.000029956199
  52      0.000000482013
  53      0.000016758352
  54      0.000000940286
  55      0.000008330127
  56      0.000008655007
 Ene=  -0.58384775827712E+00
 Spin= Alpha
 Occup=    0.000025
   1     -0.000022526671
   2      0.000054063710
   3      0.000001091962
   4      0.000193868234
   5      0.000017830195
   6     -0.000562268422
   7      0.000046044016
   8      0.000006971987
   9     -0.000246479185
  10     -0.000002107040
  11     -0.000046069860
  12     -0.000002645931
  13      0.000003684850
  14     -0.000008320046
  15      0.000016287787
  16     -0.000034418934
  17     -0.000031750800
  18     -0.000227440019
  19     -0.000020093807
  20     -0.000698689325
  21     -0.000049049090
  22     -0.000011435904
  23     -0.000278797095
  24     -0.000001368049
  25     -0.000002211043
  26      0.000000322907
  27     -0.000001033246
  28      0.000037642120
  29     -0.000087949361
  30      0.000190933554
  31      0.000221599467
  32      0.000004338550
  33     -0.000018819949
  34     -0.000696095564
  35      0.000145778865
  36      0.000032687215
  37     -0.000249492385
  38     -0.000024396019
  39      0.000006451519
  40     -0.000003129688
  41     -0.000009815392
  42     -0.000023667386
  43      0.000112468716
  44     -0.000243349630
  45     -0.000276518647
  46      0.000044547778
  47      0.000081679382
  48     -0.000646675680
  49      0.000165992902
  50      0.000002046413
  51     -0.000227335669
  52      0.000024773392
  53      0.000007267982
  54      0.000005265430
  55      0.000012845169
  56     -0.000019648700
 Ene=  -0.58384775827712E+00
 Spin= Alpha
 Occup=    0.999975
   1     -0.000258253983
   2      0.000626528171
   3     -0.000029444131
   4      0.218132111817
   5      0.006459135546
   6     -0.196086205760
   7      0.083477094180
   8      0.002507794804
   9     -0.075038212375
  10     -0.000201660239
  11     -0.011986892519
  12     -0.000441003229
  13     -0.000784484603
  14      0.010762210381
  15      0.000164876339
  16     -0.000348645123
  17     -0.000324457811
  18      0.124490618434
  19      0.003179185132
  20     -0.111931930364
  21      0.062633135483
  22      0.001630014787
  23     -0.056313758148
  24     -0.000191622424
  25     -0.011220590239
  26     -0.000397896588
  27     -0.000757385933
  28      0.010070888630
  29      0.000180943262
  30     -0.000387329299
  31     -0.000392677100
  32      0.195878675541
  33      0.005925257047
  34     -0.176821992495
  35      0.115450727194
  36      0.003581200677
  37     -0.104180108790
  38     -0.013128759176
  39      0.008437167285
  40     -0.001306600124
  41     -0.007066189610
  42     -0.008064869385
  43      0.000179225682
  44     -0.000383554772
  45     -0.000388101669
  46      0.196305241495
  47      0.005868185917
  48     -0.175714000387
  49      0.115674607169
  50      0.003550832145
  51     -0.103572486984
  52      0.013390396858
  53      0.008018985597
  54      0.001933524783
  55      0.008186641926
  56     -0.006706294027
 Ene=  -0.55631083082601E+00
 Spin= Alpha
 Occup=    0.011730
   1     -0.004269870934
   2      0.009878393766
   3      0.006814281294
   4     -0.000137384125
   5      0.014534607315
   6      0.000311059598
   7     -0.000104804653
   8     -0.003476564770
   9     -0.000248056414
  10      0.000858530651
  11     -0.000056364588
  12      0.000794690615
  13     -0.001549307693
  14     -0.000144057906
  15      0.007699392185
  16     -0.015902011798
  17     -0.017405179093
  18     -0.000366252660
  19     -0.021612480397
  20     -0.001247945373
  21     -0.000190091559
  22     -0.010502891770
  23     -0.000611534514
  24     -0.000639793818
  25      0.000030458679
  26      0.000062113847
  27      0.001090845484
  28      0.000114005586
  29     -0.003190079372
  30      0.006908121040
  31      0.004937519795
  32      0.014163378381
  33      0.002263311393
  34      0.014440028696
  35      0.008350116519
  36      0.001280999668
  37      0.008771335698
  38     -0.000377238965
  39      0.000256697453
  40     -0.001049389706
  41      0.000842022868