[Molden Format]
[Title]
generated by TRESC, real part1 of MOs of job CO3
 
[Atoms] AU
 C   1   6    0.8683455824    5.9117408867    0.3946624736
 O   2   8    3.0759666602    6.0084693058    0.4150267281
 O   3   8   -1.2068755866    6.9101599458    1.3549785802
 O   4   8   -1.0934266921    4.7345528503   -0.6041387501
[GTO]
  1 0
 s  5 1.0
     1238.4016938000        0.0059599745
      186.2900499200        0.0422621111
       42.2511763500        0.1866575214
       11.6765579300        0.4675815865
        3.5930506500        0.4422897287
 s  1 1.0
        0.4024514700        1.0000000000
 s  1 1.0
        0.1309018300        1.0000000000
 p  3 1.0
        9.4680970600        0.0570294585
        2.0103545100        0.3130471495
        0.5477100500        0.7605135301
 p  1 1.0
        0.1526861400        1.0000000000
 d  1 1.0
        0.8000000000        1.0000000000
 
  2 0
 s  5 1.0
     2266.1767785000        0.0060711540
      340.8701019100        0.0417308970
       77.3631351700        0.1850777598
       21.4796449400        0.4668774046
        6.6589433100        0.4435718061
 s  1 1.0
        0.8097597600        1.0000000000
 s  1 1.0
        0.2553077200        1.0000000000
 p  3 1.0
       17.7215043200        0.0628680198
        3.8635505400        0.3334973703
        1.0480920900        0.7412421661
 p  1 1.0
        0.2764154400        1.0000000000
 d  1 1.0
        1.2000000000        1.0000000000
 
  3 0
 s  5 1.0
     2266.1767785000        0.0060711540
      340.8701019100        0.0417308970
       77.3631351700        0.1850777598
       21.4796449400        0.4668774046
        6.6589433100        0.4435718061
 s  1 1.0
        0.8097597600        1.0000000000
 s  1 1.0
        0.2553077200        1.0000000000
 p  3 1.0
       17.7215043200        0.0628680198
        3.8635505400        0.3334973703
        1.0480920900        0.7412421661
 p  1 1.0
        0.2764154400        1.0000000000
 d  1 1.0
        1.2000000000        1.0000000000
 
  4 0
 s  5 1.0
     2266.1767785000        0.0060711540
      340.8701019100        0.0417308970
       77.3631351700        0.1850777598
       21.4796449400        0.4668774046
        6.6589433100        0.4435718061
 s  1 1.0
        0.8097597600        1.0000000000
 s  1 1.0
        0.2553077200        1.0000000000
 p  3 1.0
       17.7215043200        0.0628680198
        3.8635505400        0.3334973703
        1.0480920900        0.7412421661
 p  1 1.0
        0.2764154400        1.0000000000
 d  1 1.0
        1.2000000000        1.0000000000
 
[5D]
[7F]
[9G]
[MO]
 Ene=  -0.19360605709078E+02
 Spin= Alpha
 Occup=    0.000339
   1      0.000004597953
   2      0.000015962408
   3      0.000207801365
   4      0.000006106117
   5     -0.000011191605
   6      0.000006385397
   7      0.000071071121
   8     -0.000228984679
   9      0.000071416090
  10      0.000009503813
  11      0.000018544780
  12      0.000001199479
  13     -0.000017959676
  14      0.000019376798
  15     -0.000007564464
  16     -0.000009330808
  17      0.000090967927
  18      0.000001929304
  19     -0.000004979671
  20      0.000002007412
  21     -0.000029172687
  22     -0.000006133920
  23     -0.000032667777
  24     -0.000001452296
  25      0.000008075034
  26      0.000001648414
  27      0.000001629372
  28      0.000009183502
  29      0.018164962129
  30      0.000831584213
  31     -0.000643938977
  32     -0.000028431419
  33      0.000038370146
  34     -0.000030183309
  35      0.000081849631
  36     -0.000117536989
  37      0.000086997946
  38     -0.000000810169
  39     -0.000000667342
  40     -0.000003729020
  41      0.000002299262
  42     -0.000000853121
  43     -0.000605687284
  44     -0.000015243082
  45     -0.000014459756
  46      0.000006221682
  47     -0.000003178995
  48      0.000006879526
  49      0.000020699668
  50     -0.000020023633
  51      0.000022305099
  52      0.000002409653
  53     -0.000004265637
  54      0.000008077050
  55     -0.000005606843
  56     -0.000004874670
 Ene=  -0.19360605709078E+02
 Spin= Alpha
 Occup=    0.999661
   1      0.000342853099
   2      0.001197159719
   3      0.015606009990
   4      0.000142760624
   5     -0.000823123405
   6      0.000131103200
   7      0.001630972895
   8     -0.016968554110
   9      0.001242969419
  10      0.000699304717
  11      0.000436755149
  12      0.000040310210
  13     -0.001246604846
  14      0.000403843298
  15     -0.000419917180
  16     -0.000691774536
  17      0.006817333734
  18      0.000045294604
  19     -0.000368347975
  20      0.000037933840
  21     -0.000716260398
  22     -0.000543674592
  23     -0.000814214215
  24     -0.000116264165
  25      0.000197411014
  26      0.000101061092
  27      0.000165995678
  28      0.000234602956
  29      0.888172645112
  30      0.040976941035
  31     -0.032397310179
  32     -0.001567930840
  33      0.001851760234
  34     -0.001681890880
  35      0.003533895838
  36     -0.006296741254
  37      0.003719228925
  38      0.000021893469
  39      0.000051842645
  40      0.000028400686
  41     -0.000047489954
  42      0.000055609556
  43      0.430366070550
  44      0.020320981185
  45     -0.017033222554
  46      0.001046988282
  47      0.000729549790
  48      0.001189305072
  49     -0.001098842089
  50     -0.003729916229
  51     -0.001348029385
  52      0.000100303040
  53     -0.000184538471
  54      0.000308587897
  55     -0.000227003757
  56     -0.000209253527
 Ene=  -0.19360444360560E+02
 Spin= Alpha
 Occup=    0.000105
   1     -0.000002359332
   2     -0.000008022679
   3     -0.000103911532
   4     -0.000003662730
   5      0.000005633348
   6     -0.000003894681
   7     -0.000043069719
   8      0.000115155928
   9     -0.000044015128
  10     -0.000004721962
  11     -0.000011138819
  12     -0.000000670063
  13      0.000009152549
  14     -0.000011849275
  15      0.000008536205
  16      0.000004936503
  17     -0.000045758886
  18     -0.000001187876
  19      0.000002474779
  20     -0.000001227907
  21      0.000017580972
  22      0.000002932686
  23      0.000019644380
  24      0.000000688040
  25     -0.000004873991
  26     -0.000000887505
  27     -0.000000716542
  28     -0.000005501167
  29     -0.010042606790
  30     -0.000459047129
  31      0.000354169012
  32      0.000015327089
  33     -0.000021253821
  34      0.000016259286
  35     -0.000046147115
  36      0.000063902967
  37     -0.000049147317
  38      0.000000561659
  39      0.000000481230
  40      0.000002459460
  41     -0.000001629074
  42      0.000000607223
  43      0.001254342041
  44      0.000050541417
  45     -0.000024635204
  46     -0.000002123849
  47      0.000003718349
  48     -0.000002096829
  49     -0.000015540005
  50      0.000005447762
  51     -0.000017185231
  52     -0.000001461425
  53      0.000002405484
  54     -0.000004687965
  55      0.000003257378
  56      0.000002570727
 Ene=  -0.19360444360560E+02
 Spin= Alpha
 Occup=    0.999895
   1     -0.000077120680
   2     -0.000270662550
   3     -0.003531417366
   4      0.000264644839
   5      0.000169913630
   6      0.000300137714
   7      0.003143768343
   8      0.003629950694
   9      0.003619511564
  10     -0.000142616472
  11      0.000801332734
  12      0.000038760778
  13      0.000183924517
  14      0.000906372912
  15      0.000105274278
  16      0.000156580796
  17     -0.001537123043
  18      0.000085600312
  19      0.000077106816
  20      0.000097824826
  21     -0.001235171462
  22      0.000202733848
  23     -0.001367441713
  24      0.000032302689
  25      0.000343443235
  26     -0.000001886481
  27     -0.000078470338
  28      0.000377180980
  29      0.249189566907
  30      0.011035354945
  31     -0.007763709309
  32     -0.000171541605
  33      0.000564534750
  34     -0.000171730754
  35      0.001664125110
  36     -0.000974351358
  37      0.001818420454
  38     -0.000086969265
  39     -0.000106424023
  40     -0.000300080561
  41      0.000221928328
  42     -0.000114938098
  43     -0.547639241102
  44     -0.024906063021
  45      0.018943384284
  46     -0.000780418989
  47     -0.001084577545
  48     -0.000904846018
  49      0.002754677799
  50      0.002954227706
  51      0.003164034703
  52      0.000055539080
  53     -0.000084050130
  54      0.000212105449
  55     -0.000135595538
  56     -0.000094586012
 Ene=  -0.19273456588017E+02
 Spin= Alpha
 Occup=    0.000000
   1     -0.000000045273
   2     -0.000000241236
   3     -0.000000965068
   4      0.000000090747
   5      0.000000102258
   6      0.000000018212
   7     -0.000000084677
   8     -0.000002134533
   9     -0.000000059786
  10     -0.000000170733
  11     -0.000000109773
  12      0.000000009036
  13      0.000000292562
  14      0.000000030664
  15     -0.000103167997
  16     -0.000004937196
  17      0.000004247065
  18     -0.000000272959
  19      0.000000402316
  20      0.000000020676
  21      0.000000140050
  22     -0.000000884653
  23     -0.000000046986
  24      0.000000037201
  25      0.000000026238
  26     -0.000000000812
  27     -0.000000068526
  28     -0.000000067324
  29      0.000004251138
  30      0.000000233307
  31     -0.000000798225
  32     -0.000000017600
  33     -0.000000029307
  34     -0.000000002323
  35      0.000000193981
  36     -0.000000004974
  37      0.000000189001
  38     -0.000000015848
  39      0.000000056519
  40     -0.000000013376
  41      0.000000041920
  42      0.000000036366
  43     -0.000004345274
  44     -0.000000115155
  45     -0.000000487439
  46     -0.000000014089
  47     -0.000000023245
  48      0.000000002153
  49     -0.000000063092
  50      0.000000055429
  51     -0.000000094286
  52     -0.000000024497
  53     -0.000000003256
  54     -0.000000003339
  55      0.000000028539
  56     -0.000000028782
 Ene=  -0.19273456588017E+02
 Spin= Alpha
 Occup=    1.000000
   1      0.000392743362
   2      0.002081943975
   3      0.008341627904
   4     -0.000008887914
   5     -0.000900757133
   6     -0.000040114081
   7      0.000168687509
   8      0.018444364175
   9      0.000806910783
  10      0.001475951701
  11     -0.000041186322
  12     -0.000119405436
  13     -0.002522312066
  14     -0.000219762350
  15      0.891752951628
  16      0.042680100484
  17     -0.036710921668
  18     -0.000032165556
  19     -0.003478151795
  20     -0.000152273603
  21      0.000070980867
  22      0.007644467918
  23      0.000335220890
  24     -0.000357964867
  25      0.000011196321
  26      0.000007510182
  27      0.000616280344
  28      0.000054093132
  29      0.000343995870
  30     -0.000514148162
  31      0.005566040128
  32      0.000017972898
  33      0.000227015963
  34      0.000027581011
  35     -0.001115569134
  36     -0.000174174465
  37     -0.001246352747
  38      0.000166655147
  39     -0.000260552687
  40      0.000067501880
  41     -0.000284751021
  42     -0.000306766758
  43      0.000352180908
  44     -0.000512141476
  45      0.005551130789
  46     -0.000014397839
  47      0.000228274812
  48     -0.000008389882
  49      0.001109007558
  50     -0.000305937082
  51      0.001223947111
  52      0.000174721105
  53      0.000241151062
  54      0.000093894264
  55     -0.000338484235
  56      0.000249354501
 Ene=  -0.10457463035036E+02
 Spin= Alpha
 Occup=    1.000000
   1     -0.015418232876
   2     -0.000854874906
   3      0.000012666055
   4     -0.000000116676
   5      0.000007802768
   6      0.000000352167
   7     -0.000000525033
   8     -0.000051064142
   9     -0.000002295421
  10      0.000049127132
  11     -0.000000434467
  12     -0.000024028967
  13     -0.000079758885
  14     -0.000006266733
  15      0.000003014318
  16     -0.000003802001
  17      0.000237318158
  18     -0.000000325094
  19     -0.000031425678
  20     -0.000001444179
  21     -0.000001466978
  22     -0.000161993931
  23     -0.000007064062
  24     -0.000013197959
  25      0.000000424409
  26      0.000001152975
  27      0.000022573943
  28      0.000001513592
  29     -0.000002049948
  30     -0.000005160585
  31      0.000088600205
  32     -0.000008723254
  33      0.000018138336
  34     -0.000008978428
  35     -0.000032019602
  36      0.000090131018
  37     -0.000032561360
  38     -0.000009482375
  39     -0.000022738246
  40      0.000011064958
  41      0.000015484321
  42     -0.000024056979
  43     -0.000001670327
  44     -0.000005410299
  45      0.000087982109
  46      0.000008850221
  47      0.000016915564
  48      0.000010528087
  49      0.000033399996
  50      0.000086117520
  51      0.000040081206
  52     -0.000008838294
  53      0.000022242348
  54      0.000013335610
  55      0.000011007140
  56      0.000025829876
 Ene=  -0.10457463035036E+02
 Spin= Alpha
 Occup=    0.000000
   1     -0.000015699791
   2     -0.000000870513
   3      0.000000012937
   4     -0.000000107829
   5      0.000000011553
   6     -0.000000053430
   7     -0.000000005871
   8     -0.000000049500
   9     -0.000000049153
  10      0.000000052186
  11      0.000000284551
  12     -0.000000012338
  13     -0.000000085486
  14     -0.000000002255
  15      0.000000003124
  16     -0.000000003862
  17      0.000000241196
  18     -0.000000108802
  19     -0.000000031295
  20      0.000000006008
  21      0.000000060415
  22     -0.000000166340
  23      0.000000015414
  24     -0.000000015262
  25     -0.000000250267
  26     -0.000000009352
  27      0.000000025133
  28      0.000000016707
  29     -0.000000082746
  30      0.000000018517
  31      0.000000230652
  32      0.000000053217
  33      0.000000090509
  34     -0.000000026703
  35     -0.000000118784
  36      0.000000112232
  37     -0.000000102394
  38      0.000000037579
  39     -0.000000128136
  40      0.000000051059
  41     -0.000000033809
  42     -0.000000022559
  43      0.000000079058
  44     -0.000000029322
  45     -0.000000050403
  46      0.000000065944
  47     -0.000000053919
  48     -0.000000010002
  49     -0.000000049297
  50      0.000000075098
  51     -0.000000032474
  52     -0.000000053733
  53     -0.000000069291
  54     -0.000000034150
  55      0.000000065452
  56      0.000000032089
 Ene=  -0.13017599933828E+01
 Spin= Alpha
 Occup=    0.000000
   1     -0.000008162399
   2      0.000015938430
   3     -0.000001044366
   4     -0.000029012938
   5     -0.000008148572
   6      0.000003769949
   7      0.000016044122
   8      0.000001339194
   9      0.000003452518
  10     -0.000000838001
  11      0.000002424894
  12      0.000000594285
  13      0.000001358206
  14      0.000002639394
  15     -0.000001983759
  16      0.000003813623
  17      0.000000999146
  18     -0.000025382482
  19     -0.000001383047
  20      0.000000242656
  21     -0.000003191354
  22     -0.000000155048
  23     -0.000001221353
  24     -0.000000032582
  25      0.000000800952
  26      0.000000017478
  27      0.000000021136
  28      0.000000534603
  29     -0.000012938820
  30      0.000023924880
  31      0.000023970297
  32      0.000056896079
  33      0.000071842218
  34     -0.000008409226
  35     -0.000013006336
  36     -0.000002538356
  37     -0.000011699312
  38     -0.000002400398
  39     -0.000000667866
  40      0.000001416055
  41      0.000000899669
  42     -0.000002141100
  43     -0.000006636909
  44      0.000014456684
  45     -0.000001536961
  46      0.000057877330
  47     -0.000064605540
  48      0.000001725303
  49     -0.000009373233
  50      0.000006366588
  51     -0.000008032964
  52      0.000002278899
  53     -0.000000244482
  54      0.000000197465
  55     -0.000001023777
  56     -0.000001553042
 Ene=  -0.13017599933828E+01
 Spin= Alpha
 Occup=    1.000000
   1      0.082737477191
   2     -0.161698981863
   3      0.010530356844
   4      0.000725320287
   5      0.083230069098
   6      0.003648243060
   7     -0.000158085937
   8     -0.016560228037
   9     -0.000745645215
  10      0.009731678205
  11     -0.000095016897
  12     -0.004626759646
  13     -0.015819588168
  14     -0.001345720830
  15      0.020150579299
  16     -0.038746472598
  17     -0.010034432393
  18      0.000147237744
  19      0.016272202171
  20      0.000735008130
  21      0.000023569219
  22      0.002309359268
  23      0.000105467960
  24      0.000407457394
  25     -0.000023307993
  26      0.000222963441
  27     -0.000750304796
  28     -0.000068777028
  29      0.099317706256
  30     -0.194726509751
  31     -0.113779959681
  32      0.045691202180
  33     -0.043048425282
  34      0.049325807755
  35      0.016162522840
  36     -0.014853313375
  37      0.017483432504
  38     -0.000036475231
  39      0.003325676622
  40     -0.008479420747
  41      0.001652762754
  42      0.003496529906
  43      0.099181257025
  44     -0.194463147393
  45     -0.113634414199
  46     -0.046411424698
  47     -0.037447718355
  48     -0.052942368747
  49     -0.016405396662
  50     -0.012954666424
  51     -0.018683054340
  52     -0.000135553724
  53     -0.002520386568
  54     -0.008795495611
  55      0.002292571077
  56     -0.002982925195
 Ene=  -0.11393378128600E+01
 Spin= Alpha
 Occup=    0.000001
   1     -0.000102499461
   2      0.000205126133
   3      0.000020310762
   4      0.000068750491
   5      0.000231530921
   6      0.000012919236
   7     -0.000032563827
   8      0.000019196605
   9     -0.000001540228
  10     -0.000009283713
  11     -0.000002346528
  12     -0.000001740764
  13      0.000016480530
  14     -0.000001490684
  15     -0.000217067879
  16      0.000428618397
  17      0.000203230432
  18     -0.000166545274
  19     -0.000152040738
  20     -0.000008046194
  21      0.000007871621
  22     -0.000022852316
  23     -0.000000309231
  24     -0.000007024268
  25      0.000005748154
  26     -0.000000787421
  27      0.000012482538
  28      0.000000673977
  29      0.000029134457
  30     -0.000058263821
  31     -0.000032415420
  32      0.000021371511
  33     -0.000016378935
  34      0.000019178940
  35      0.000017117639
  36      0.000002333475
  37      0.000010775064
  38     -0.000000744816
  39      0.000001787326
  40     -0.000004798582
  41      0.000002147795
  42      0.000001645686
  43      0.000039105049
  44     -0.000081801587
  45     -0.000037134422
  46     -0.000014626351
  47      0.000020059941
  48     -0.000024056544
  49      0.000005383982
  50      0.000002378171
  51     -0.000002290868
  52     -0.000001723798
  53      0.000001414128
  54     -0.000002978219
  55      0.000003732001
  56      0.000001333706
 Ene=  -0.11393378128600E+01
 Spin= Alpha
 Occup=    0.999999
   1      0.117174043750
   2     -0.234481399096
   3     -0.023189949613
   4     -0.002430150507
   5     -0.265506851014
   6     -0.011640160174
   7     -0.000193425243
   8     -0.021500452594
   9     -0.000930104199
  10      0.010516060829
  11     -0.000423968474
  12      0.001818672763
  13     -0.018534654423
  14     -0.001648148200
  15      0.248136760848
  16     -0.489966484623
  17     -0.232323910003
  18      0.001619081962
  19      0.175618119604
  20      0.007740315545
  21      0.000236338189
  22      0.026011396703
  23      0.001135168466
  24      0.008132634062
  25     -0.000313292000
  26      0.001169957262
  27     -0.014284028926
  28     -0.001266021961
  29     -0.039031971142
  30      0.080116307038
  31      0.039748229847
  32     -0.022044059358
  33     -0.000727035791
  34     -0.024547209365
  35     -0.006731243042
  36     -0.002640978735
  37     -0.007578242899
  38      0.001460435196
  39     -0.000461863435
  40      0.004517219912
  41     -0.003460371496
  42     -0.000578113296
  43     -0.038966125060
  44      0.079981635680
  45      0.039699857417
  46      0.021985536239
  47     -0.003332406540
  48      0.024345758809
  49      0.006673504060
  50     -0.003417366800
  51      0.007307812432
  52      0.001467447528
  53     -0.000052355906
  54      0.004536874063
  55     -0.003505119695
  56     -0.000124338812
 Ene=  -0.98188459864817E+00
 Spin= Alpha
 Occup=    0.000002
   1      0.000007094998
   2     -0.000005088663
   3     -0.000000781862
   4     -0.000136557911
   5      0.000044237220
   6     -0.000155793136
   7     -0.000009769773
   8      0.000007887319
   9     -0.000010345387
  10     -0.000001239135
  11      0.000023907026
  12     -0.000000886016
  13     -0.000002250063
  14      0.000026559193
  15      0.000006290836
  16     -0.000011098437
  17     -0.000027797326
  18     -0.000019143796
  19      0.000026383806
  20     -0.000023256091
  21     -0.000007809555
  22      0.000015237267
  23     -0.000008507192
  24      0.000002682445
  25      0.000004045971
  26      0.000000607889
  27     -0.000004365161
  28      0.000004338391
  29      0.000223385135
  30     -0.000460224047
  31     -0.000316137467
  32     -0.000114876048
  33     -0.000083753160
  34     -0.000015490119
  35     -0.000009007479
  36     -0.000037994403
  37     -0.000003935003
  38      0.000004328364
  39     -0.000000451561
  40      0.000002873082
  41     -0.000007391614
  42      0.000001347583
  43     -0.000200786265
  44      0.000416305450
  45      0.000294870404
  46      0.000097491256
  47      0.000095465981
  48     -0.000006973361
  49      0.000009163886
  50      0.000039833696
  51      0.000003237900
  52     -0.000002854883
  53      0.000005651973
  54      0.000001948324
  55      0.000005538523
  56      0.000004454379
 Ene=  -0.98188459864817E+00
 Spin= Alpha
 Occup=    0.999998
   1     -0.000059362857
   2      0.000115564277
   3      0.000028238644
   4      0.123806738509
   5     -0.007293732446
   6      0.137482913541
   7      0.008608622720
   8     -0.000553570561
   9      0.009558090792
  10     -0.000340262383
  11     -0.021153718627
  12     -0.001146536386
  13      0.002263149787
  14     -0.023449552745
  15     -0.000007398854
  16      0.000010524040
  17      0.000055634326
  18      0.018440426396
  19     -0.001084302546
  20      0.020477241278
  21      0.007193698521
  22     -0.000434679604
  23      0.007987977350
  24     -0.000061127084
  25     -0.003713808180
  26     -0.000201145694
  27      0.000399316574
  28     -0.004116736679
  29     -0.188009857274
  30      0.388528013593
  31      0.270764492268
  32      0.009306014318
  33      0.080016425049
  34      0.013106340081
  35      0.000509391511
  36      0.034657268039
  37      0.001737553725
  38     -0.003336703230
  39     -0.002264809113
  40     -0.000686212180
  41      0.006066683503
  42     -0.002137960619
  43      0.188221602883
  44     -0.388943945958
  45     -0.271189881734
  46      0.007678026831
  47     -0.080861886413
  48      0.005759307753
  49     -0.000225874720
  50     -0.034675523310
  51     -0.001422845986
  52      0.003251360484
  53     -0.002528400291
  54      0.000390841991
  55     -0.005531098832
  56     -0.003175241325
 Ene=  -0.64951709063355E+00
 Spin= Alpha
 Occup=    0.999992
   1      0.144335502847
   2     -0.358215382541
   3     -0.046406919238
   4      0.001774396336
   5      0.176790844210
   6      0.007653308649
   7      0.000148690957
   8      0.007781456408
   9      0.000310228510
  10      0.004945237308
  11      0.000157713211
  12     -0.007393602127
  13     -0.006975484329
  14     -0.000531914786
  15     -0.064278168281
  16      0.134457573780
  17      0.126026282966
  18      0.000739751885
  19      0.072790755575
  20      0.003224457977
  21      0.000361124338
  22      0.036192439973
  23      0.001592071981
  24      0.001702378312
  25     -0.000055834096
  26     -0.000158174646
  27     -0.002905241521
  28     -0.000252271719
  29     -0.095226975675
  30      0.196153606272
  31      0.214202466914
  32      0.065748776902
  33     -0.289707307806
  34      0.062822580172
  35      0.023999726728
  36     -0.147458006172
  37      0.021490207299
  38      0.004240161522
  39      0.011653142341
  40      0.000915707146
  41     -0.008344767616
  42      0.012433645967
  43     -0.095008847509
  44      0.195669441332
  45      0.213717429557
  46     -0.070507809375
  47     -0.281239824028
  48     -0.088468885863
  49     -0.026418213241
  50     -0.144322836127
  51     -0.034491003027
  52      0.003882011591
  53     -0.011913393800
  54     -0.000349364069
  55     -0.005792411217
  56     -0.013687351904
 Ene=  -0.64951709063354E+00
 Spin= Alpha
 Occup=    0.000008
   1     -0.000255766138
   2      0.000634789493
   3      0.000082074880
   4     -0.000248426646
   5     -0.000329796283
   6      0.000410498147
   7     -0.000147511500
   8     -0.000018470970
   9      0.000137346803
  10     -0.000008444835
  11      0.000049481267
  12      0.000014772276
  13      0.000015720321
  14     -0.000044759375
  15      0.000113809520
  16     -0.000238083933
  17     -0.000223075646
  18      0.000040384910
  19     -0.000136515116
  20      0.000160547020
  21      0.000007062386
  22     -0.000067293669
  23      0.000068644522
  24     -0.000002852246
  25      0.000009738626
  26      0.000000529581
  27      0.000006691901
  28     -0.000018264050
  29      0.000159995076
  30     -0.000314937279
  31     -0.000413701817
  32     -0.001024524404
  33      0.000446377103
  34      0.000282083048
  35     -0.000357548221
  36      0.000256314310
  37      0.000216541185
  38      0.000028578206
  39     -0.000044968808
  40     -0.000000557432
  41      0.000036353380
  42     -0.000005754148
  43      0.000177352748
  44     -0.000379898805
  45     -0.000345042665
  46     -0.000764009519
  47      0.000547307979
  48      0.000540970339
  49     -0.000262551582
  50      0.000244150791
  51      0.000311095069
  52     -0.000043488880
  53     -0.000001850179
  54     -0.000002173347
  55     -0.000013280784
  56      0.000036220270
 Ene=  -0.58384775827712E+00
 Spin= Alpha
 Occup=    0.000025
   1      0.000438709863
   2     -0.001054086488
   3     -0.000037490155
   4     -0.001035562544
   5      0.000051833259
   6      0.000918078177
   7     -0.000397409212
   8      0.000057784090
   9      0.000351352084
  10      0.000025972146
  11      0.000054102553
  12      0.000009746005
  13     -0.000040632611
  14     -0.000056061267
  15     -0.000322726439
  16      0.000681122754
  17      0.000634252656
  18     -0.000598372798
  19      0.001013698300
  20      0.000548744908
  21     -0.000298305385
  22      0.000461451149
  23      0.000277517872
  24      0.000027046127
  25      0.000052935617
  26      0.000000404959
  27     -0.000040074458
  28     -0.000050352722
  29     -0.000234026618
  30      0.000500239175
  31      0.000531102873
  32     -0.000588516222
  33     -0.000109588899
  34      0.001205573167
  35     -0.000364641204
  36     -0.000194080016
  37      0.000685535107
  38      0.000061347626
  39     -0.000022429829
  40     -0.000009189884
  41      0.000035549440
  42      0.000057743152
  43     -0.000224641792
  44      0.000479824657
  45      0.000507595569
  46     -0.001292154777
  47     -0.000065022671
  48      0.000415107273
  49     -0.000732365082
  50     -0.000174731543
  51      0.000273223957
  52     -0.000064013761
  53     -0.000054355583
  54     -0.000026180638
  55     -0.000032809473
  56      0.000012012028
 Ene=  -0.58384775827712E+00
 Spin= Alpha
 Occup=    0.999975
   1      0.000357740032
   2     -0.000866155732
   3      0.000025288084
   4      0.161422224107
   5      0.005054126690
   6     -0.145092977032
   7      0.061773671698
   8      0.001892589862
   9     -0.055527672083
  10     -0.000098364232
  11     -0.008873726383
  12     -0.000296553837
  13     -0.000674773453
  14      0.007955164788
  15     -0.000221924881
  16      0.000471390138
  17      0.000428006444
  18      0.092131943085
  19      0.003553305697
  20     -0.082781441330
  21      0.046353070307
  22      0.001748176068
  23     -0.041649916701
  24     -0.000115830767
  25     -0.008304050953
  26     -0.000295563685
  27     -0.000606851111
  28      0.007448548952
  29     -0.000240511781
  30      0.000515438919
  31      0.000521202286
  32      0.145712208050
  33      0.004426488470
  34     -0.130003482739
  35      0.085845681274
  36      0.002484972802
  37     -0.076642536356
  38     -0.009722394338
  39      0.006272550454
  40     -0.001007588951
  41     -0.005208995007
  42     -0.005937383339
  43     -0.000240793078
  44      0.000515671326
  45      0.000521931303
  46      0.144499556975
  47      0.004470681137
  48     -0.130878292150
  49      0.085183475436
  50      0.002509200990
  51     -0.077111480807
  52      0.009901195536
  53      0.005909281828
  54      0.001387262169
  55      0.006083585174
  56     -0.004988833564
 Ene=  -0.55631083082601E+00
 Spin= Alpha
 Occup=    0.011730
   1      0.005630832146
   2     -0.013027250661
   3     -0.008983462773
   4      0.002552005280
   5     -0.019304155316
   6      0.002307599530
   7      0.000845092967
   8      0.004544553199
   9      0.001069105459
  10     -0.001074544626
  11      0.000100719343
  12     -0.001040197897
  13      0.002081581643
  14      0.000112217611
  15     -0.010152158512
  16      0.020967888477
  17      0.022949799319
  18      0.002892965745
  19      0.028410258094
  20      0.003161402325
  21      0.001428153232
  22      0.013800147634
  23      0.001679035136
  24      0.000841816233
  25     -0.000184017904
  26     -0.000089275738
  27     -0.001425763718
  28     -0.000274629878
  29      0.004950799376
  30     -0.010648669759
  31     -0.008343869977
  32     -0.018698533499
  33      0.000113550046
  34     -0.020207906362
  35     -0.011193947979
  36     -0.000165745156
  37     -0.012111845076
  38      0.000444532524
  39     -0.000368715619
  40      0.001388859490
  41     -0.001006562703