[Molden Format]
[Title]
generated by TRESC, real part2 of MOs of job CO3
 
[Atoms] AU
 C   1   6    0.8683455824    5.9117408867    0.3946624736
 O   2   8    3.0759666602    6.0084693058    0.4150267281
 O   3   8   -1.2068755866    6.9101599458    1.3549785802
 O   4   8   -1.0934266921    4.7345528503   -0.6041387501
[GTO]
  1 0
 s  5 1.0
     1238.4016938000        0.0059599745
      186.2900499200        0.0422621111
       42.2511763500        0.1866575214
       11.6765579300        0.4675815865
        3.5930506500        0.4422897287
 s  1 1.0
        0.4024514700        1.0000000000
 s  1 1.0
        0.1309018300        1.0000000000
 p  3 1.0
        9.4680970600        0.0570294585
        2.0103545100        0.3130471495
        0.5477100500        0.7605135301
 p  1 1.0
        0.1526861400        1.0000000000
 d  1 1.0
        0.8000000000        1.0000000000
 
  2 0
 s  5 1.0
     2266.1767785000        0.0060711540
      340.8701019100        0.0417308970
       77.3631351700        0.1850777598
       21.4796449400        0.4668774046
        6.6589433100        0.4435718061
 s  1 1.0
        0.8097597600        1.0000000000
 s  1 1.0
        0.2553077200        1.0000000000
 p  3 1.0
       17.7215043200        0.0628680198
        3.8635505400        0.3334973703
        1.0480920900        0.7412421661
 p  1 1.0
        0.2764154400        1.0000000000
 d  1 1.0
        1.2000000000        1.0000000000
 
  3 0
 s  5 1.0
     2266.1767785000        0.0060711540
      340.8701019100        0.0417308970
       77.3631351700        0.1850777598
       21.4796449400        0.4668774046
        6.6589433100        0.4435718061
 s  1 1.0
        0.8097597600        1.0000000000
 s  1 1.0
        0.2553077200        1.0000000000
 p  3 1.0
       17.7215043200        0.0628680198
        3.8635505400        0.3334973703
        1.0480920900        0.7412421661
 p  1 1.0
        0.2764154400        1.0000000000
 d  1 1.0
        1.2000000000        1.0000000000
 
  4 0
 s  5 1.0
     2266.1767785000        0.0060711540
      340.8701019100        0.0417308970
       77.3631351700        0.1850777598
       21.4796449400        0.4668774046
        6.6589433100        0.4435718061
 s  1 1.0
        0.8097597600        1.0000000000
 s  1 1.0
        0.2553077200        1.0000000000
 p  3 1.0
       17.7215043200        0.0628680198
        3.8635505400        0.3334973703
        1.0480920900        0.7412421661
 p  1 1.0
        0.2764154400        1.0000000000
 d  1 1.0
        1.2000000000        1.0000000000
 
[5D]
[7F]
[9G]
[MO]
 Ene=   0.94095565603450E+00
 Spin= Alpha
 Occup=    0.000000
   1     -0.000016452818
   2     -0.000034652212
   3     -0.002608907019
   4     -0.000201357536
   5      0.000255604034
   6     -0.000143205479
   7      0.000310457345
   8      0.002246679590
   9     -0.000633727211
  10      0.002085783472
  11      0.000200688183
  12      0.000574746606
  13      0.000862216914
  14      0.000372983929
  15     -0.000096298197
  16      0.000469990950
  17     -0.000814786500
  18      0.001819674304
  19      0.001130732302
  20      0.001851972398
  21     -0.002527229261
  22     -0.001493595690
  23     -0.002151302410
  24      0.000363901122
  25     -0.000070832607
  26      0.000080106684
  27      0.000249237402
  28     -0.000025578169
  29      0.000358214950
  30     -0.001980713827
  31      0.003190007366
  32     -0.017011035275
  33     -0.000970914844
  34      0.012241381967
  35      0.023154312672
  36      0.002813952835
  37     -0.016825571245
  38      0.001004916375
  39      0.000209863442
  40      0.000219679518
  41      0.000571388243
  42     -0.000008368166
  43      0.000069839587
  44     -0.000614873621
  45      0.002893328477
  46      0.015926453561
  47      0.001680047750
  48     -0.014707260108
  49     -0.021080392693
  50     -0.002780477088
  51      0.020993823092
  52      0.000933477408
  53     -0.000139205993
  54      0.000188273168
  55      0.000637897460
  56      0.000159462983
 Ene=   0.94095565603451E+00
 Spin= Alpha
 Occup=    0.000000
   1     -0.003109106858
   2     -0.006497149429
   3     -0.493504128726
   4      0.000416148443
   5      0.046658283505
   6      0.002069682848
   7      0.004265444051
   8      0.419379544772
   9      0.018216826643
  10      0.004655838555
  11     -0.003302532804
  12      0.058646567739
  13     -0.055489036464
  14     -0.005455824944
  15     -0.018221880699
  16      0.088911031457
  17     -0.153995782163
  18      0.001961569029
  19      0.232035418688
  20      0.009927702398
  21     -0.002662175618
  22     -0.304396463744
  23     -0.012905997400
  24     -0.006405775004
  25     -0.000147897384
  26      0.006550694291
  27      0.002875266771
  28      0.000208842778
  29      0.040462975164
  30     -0.245343682299
  31      0.575122696120
  32      0.000600302298
  33      0.066818675486
  34     -0.240033549022
  35     -0.084506152569
  36      0.011926147184
  37      0.239223457219
  38     -0.013023153054
  39      0.005887755474
  40      0.014446540903
  41      0.001129035785
  42      0.009069359673
  43      0.040565176437
  44     -0.245930757927
  45      0.575640100592
  46      0.000912762136
  47      0.045057047546
  48      0.244762542636
  49      0.084302017336
  50      0.032121136080
  51     -0.236824372333
  52     -0.013210907082
  53     -0.006641129862
  54      0.013719021247
  55      0.002835455560
  56     -0.009014665726
 Ene=   0.97585730125607E+00
 Spin= Alpha
 Occup=    0.000000
   1      0.001512689753
   2     -0.022813388585
   3     -0.008073217779
   4      0.000349939736
   5     -0.004698622125
   6     -0.000006632371
   7     -0.001973591981
   8      0.026947708706
   9      0.001963058821
  10      0.007091486037
  11     -0.001086676742
  12      0.005609681060
  13     -0.013380608367
  14     -0.001353311576
  15      0.000813285387
  16     -0.007254363875
  17      0.012371042953
  18     -0.004124910768
  19      0.021699231660
  20      0.000417237569
  21      0.005806300712
  22     -0.048485323504
  23     -0.001672267430
  24      0.000007518630
  25      0.000182324616
  26     -0.000231075313
  27      0.000049559401
  28      0.000014384338
  29     -0.001514861419
  30      0.006733564642
  31     -0.000174064088
  32      0.018701004501
  33      0.030396336512
  34      0.021441744674
  35     -0.024115956687
  36     -0.030151421383
  37     -0.028477011180
  38     -0.002125214098
  39      0.001210558730
  40     -0.003300925402
  41      0.004291619732
  42      0.001537027744
  43     -0.001046980624
  44      0.004178888713
  45      0.001697976910
  46     -0.015697462087
  47      0.031193528261
  48     -0.017467910444
  49      0.022024649384
  50     -0.029944861588
  51      0.023751671231
  52     -0.002081347894
  53     -0.000849690969
  54     -0.003454921933
  55      0.004446184804
  56     -0.000746081435
 Ene=   0.97585730125607E+00
 Spin= Alpha
 Occup=    0.000000
   1      0.021753477929
   2     -0.328060699206
   3     -0.116053440259
   4     -0.000566558388
   5     -0.067388395712
   6     -0.002857267509
   7      0.003799749664
   8      0.387759890671
   9      0.016870543195
  10      0.101793664511
  11     -0.007376425259
  12      0.081006220580
  13     -0.192780052615
  14     -0.018175716847
  15      0.011700039128
  16     -0.104338734232
  17      0.177868125718
  18      0.002321421100
  19      0.311178013980
  20      0.012627936966
  21     -0.005636219727
  22     -0.696179857148
  23     -0.029018149374
  24      0.000010406874
  25      0.000203513944
  26     -0.003437471761
  27      0.000702564747
  28      0.000159817719
  29     -0.018449461292
  30      0.078772052318
  31      0.010369642342
  32      0.253810199304
  33      0.429370960677
  34      0.296751187746
  35     -0.338756021888
  36     -0.414429621286
  37     -0.390602044061
  38     -0.030164634758
  39      0.017987550155
  40     -0.047766165873
  41      0.061147663546
  42      0.022352575266
  43     -0.018395475141
  44      0.078182114494
  45      0.011515500175
  46     -0.245551217595
  47      0.457515490635
  48     -0.257738539447
  49      0.330854235088
  50     -0.451399071127
  51      0.352958997597
  52     -0.030617266631
  53     -0.011595860960
  54     -0.049366766912
  55      0.064272486928
  56     -0.010444914902
 Ene=   0.10141871430700E+01
 Spin= Alpha
 Occup=    0.000000
   1     -0.000088918491
   2      0.001937794942
   3      0.001445617319
   4     -0.000531242896
   5      0.000415023568
   6     -0.000565538285
   7      0.000354818690
   8     -0.000661937790
   9      0.000107563114
  10     -0.000436911023
  11      0.000839631051
  12     -0.000189983881
  13      0.001187466502
  14      0.001022165363
  15      0.000028563746
  16      0.000207097529
  17     -0.001894452810
  18      0.002414307585
  19     -0.001863267915
  20      0.002564290878
  21     -0.003381704973
  22      0.003989969525
  23     -0.003446558426
  24      0.000065320199
  25     -0.000131171852
  26      0.000009172919
  27     -0.000012803865
  28     -0.000137608238
  29      0.000140770128
  30     -0.000845370425
  31      0.000794665971
  32     -0.002888277501
  33     -0.002927914781
  34     -0.000453767110
  35      0.003544631147
  36      0.004577728167
  37      0.000409385557
  38      0.000267532022
  39      0.000019832406
  40      0.000224556125
  41     -0.000275726066
  42     -0.000026059795
  43      0.000126808298
  44     -0.000268390722
  45     -0.000619014192
  46      0.001969971893
  47      0.000655008440
  48     -0.001011552758
  49     -0.002939403162
  50     -0.002617397550
  51      0.000827178779
  52      0.000190125571
  53      0.000107569264
  54      0.000214469248
  55     -0.000157414504
  56      0.000135943799
 Ene=   0.10141871430700E+01
 Spin= Alpha
 Occup=    0.000000
   1     -0.000127967816
   2      0.002761491950
   3      0.002085690396
   4      0.029340801434
   5     -0.001176144143
   6      0.032599496030
   7     -0.012788377869
   8     -0.000481457276
   9     -0.014214118553
  10     -0.001782588276
  11     -0.045054848083
  12     -0.002840275878
  13      0.006311093855
  14     -0.049865104314
  15      0.000023387781
  16      0.000364441159
  17     -0.002546605813
  18     -0.133082836437
  19      0.005324493021
  20     -0.147867401527
  21      0.184395715287
  22     -0.005410892160
  23      0.204934215918
  24      0.000105908198
  25      0.006928084190
  26      0.000387774070
  27     -0.000823864709
  28      0.007673226662
  29     -0.000234673241
  30      0.015380222981
  31     -0.039342453069
  32      0.031017876703
  33      0.096145411538
  34      0.034843210664
  35     -0.025046434019
  36     -0.197278171199
  37     -0.030772045533
  38     -0.002075651387
  39     -0.004045930262
  40     -0.000364750441
  41      0.003716722288
  42     -0.004244414503
  43      0.000580061109
  44     -0.016779080808
  45      0.039132605163
  46      0.028848009142
  47     -0.103219881113
  48      0.031565983678
  49     -0.021180527401
  50      0.203010109944
  51     -0.020522791368
  52      0.002127353045
  53     -0.004051569491
  54      0.000459092969
  55     -0.003717343102
  56     -0.004772058536
 Ene=   0.10913934900133E+01
 Spin= Alpha
 Occup=    0.000000
   1      0.000098874254
   2     -0.001510565318
   3     -0.004000952756
   4      0.000324448966
   5      0.000144889975
   6     -0.000365620482
   7     -0.005677036187
   8      0.002182712958
   9      0.005735246044
  10      0.000538754066
  11     -0.000580724718
  12      0.000638348286
  13     -0.001124381160
  14      0.000355180489
  15     -0.000007380553
  16     -0.000232818166
  17      0.001313886542
  18     -0.004473107311
  19      0.001336146985
  20      0.004186625005
  21      0.007422964751
  22     -0.002788894880
  23     -0.007088994759
  24     -0.000047340266
  25      0.000317281096
  26      0.000067093027
  27      0.000095802597
  28     -0.000281942247
  29      0.000237757589
  30     -0.001638619654
  31      0.003766345473
  32     -0.001760511662
  33      0.001239877184
  34      0.002260095076
  35      0.002411302358
  36     -0.000417529917
  37     -0.004292352815
  38     -0.000211328564
  39     -0.000047762945
  40     -0.000150419679
  41      0.000170920921
  42      0.000308126635
  43      0.000191017376
  44     -0.001299796192
  45      0.003173436173
  46     -0.002220202820
  47      0.000945411271
  48      0.001781908586
  49      0.003913413823
  50      0.000124292832
  51     -0.002652435127
  52     -0.000039413826
  53     -0.000293988058
  54     -0.000119014975
  55      0.000283965581
  56      0.000042853880
 Ene=   0.10913934900133E+01
 Spin= Alpha
 Occup=    0.000000
   1      0.000099804856
   2     -0.001517375907
   3     -0.003940687015
   4      0.000563925364
   5      0.000132823560
   6     -0.000539847994
   7     -0.009390227686
   8      0.002030274901
   9      0.008807573308
  10      0.000538262923
  11     -0.000890160670
  12      0.000626697702
  13     -0.001146517933
  14      0.000642748688
  15     -0.000007394538
  16     -0.000240609172
  17      0.001350716141
  18     -0.007222992069
  19      0.001273413100
  20      0.006612840490
  21      0.012051378741
  22     -0.002671813572
  23     -0.011115823643
  24     -0.000038469229
  25      0.000510040429
  26      0.000074525011
  27      0.000111875584
  28     -0.000453444369
  29      0.000218864114
  30     -0.001508172618
  31      0.003525892446
  32     -0.003069378776
  33      0.001142240630
  34      0.003378186000
  35      0.004684878751
  36     -0.000230453374
  37     -0.006025505426
  38     -0.000265447045
  39     -0.000150436665
  40     -0.000158503440
  41      0.000132562286
  42      0.000400075766
  43      0.000196699945
  44     -0.001347604608
  45      0.003244945203
  46     -0.003511659203
  47      0.001016817851
  48      0.002823735094
  49      0.006138072581
  50     -0.000016623913
  51     -0.004321969333
  52      0.000007658541
  53     -0.000398347631
  54     -0.000126768540
  55      0.000310730548
  56      0.000146871315
 Ene=   0.11292477176613E+01
 Spin= Alpha
 Occup=    0.000000
   1      0.000044082883
   2     -0.000501166535
   3     -0.002296959785
   4      0.020075587054
   5     -0.001026417080
   6      0.022509348723
   7     -0.068345940325
   8      0.005660128316
   9     -0.079000296591
  10      0.000112591456
  11     -0.006828589542
  12     -0.000061953828
  13      0.000509443636
  14     -0.007881171821
  15     -0.000015960962
  16      0.000012125730
  17      0.000099715083
  18     -0.031653565754
  19      0.002328002995
  20     -0.037530934000
  21      0.059426284598
  22     -0.004411051306
  23      0.069917050642
  24      0.000022672073
  25      0.001416448745
  26      0.000119429430
  27     -0.000136342399
  28      0.001755484708
  29     -0.008451139058
  30      0.066397819094
  31     -0.130795846692
  32     -0.026535325244
  33     -0.034451081951
  34     -0.030629685771
  35      0.104849284769
  36      0.056142269935
  37      0.118919633692
  38      0.000222616179
  39      0.000633636354
  40      0.004332632166
  41     -0.001173387375
  42      0.000686868483
  43      0.008845613912
  44     -0.068871018620
  45      0.135789493455
  46     -0.024388978878
  47      0.037981934390
  48     -0.028365177930
  49      0.102464480058
  50     -0.067682898880
  51      0.115152439003
  52     -0.000170939360
  53      0.000908884807
  54     -0.004255925939
  55      0.001189192239
  56      0.000842398204
 Ene=   0.11292477176613E+01
 Spin= Alpha
 Occup=    0.000000
   1     -0.000084077997
   2      0.001142806255
   3      0.004533278279
   4      0.056732504670
   5     -0.003631318408
   6      0.063001491219
   7     -0.196585243674
   8      0.008283552813
   9     -0.218586172609
  10     -0.000550996563
  11     -0.019533670194
  12     -0.001636725322
  13      0.002769425282
  14     -0.021645855486
  15      0.000016755292
  16      0.000063123159
  17     -0.000337929747
  18     -0.092309723907
  19      0.004548757454
  20     -0.102667895503
  21      0.172561831819
  22     -0.008325671756
  23      0.191903189991
  24      0.000118170637
  25      0.004238140164
  26      0.000159761742
  27     -0.000498354984
  28      0.004702852321
  29     -0.024690526522
  30      0.192534672201
  31     -0.379701338061
  32     -0.074504736496
  33     -0.098151372559
  34     -0.085385401917
  35      0.296572310440
  36      0.156359599397
  37      0.334278743690
  38      0.000589424970
  39      0.001343720694
  40      0.012177377921
  41     -0.003649609527
  42      0.001697612638
  43      0.023945131456
  44     -0.187820333939
  45      0.369897832554
  46     -0.072083999396
  47      0.105496562563
  48     -0.077575782141
  49      0.291593780687
  50     -0.191643514260
  51      0.319050626567
  52     -0.000343903307
  53      0.002717353636
  54     -0.011920208280
  55      0.003025886117
  56      0.002783671522
 Ene=   0.13149679838909E+01
 Spin= Alpha
 Occup=    0.000000
   1      0.008111156042
   2     -0.114131076933
   3     -0.288879436359
   4     -0.000556563917
   5     -0.017363304222
   6     -0.001190718298
   7     -0.001037989208
   8     -0.046070273937
   9     -0.003498244652
  10      0.016447333588
  11     -0.000207046635
  12      0.000213704529
  13     -0.028437412132
  14     -0.002415328657
  15      0.015866430587
  16     -0.121107913732
  17      0.326695075793
  18      0.000112629919
  19     -0.025718597498
  20     -0.001473295920
  21     -0.001099942020
  22     -0.096125177645
  23     -0.003302490936
  24      0.000985498433
  25     -0.000157691926
  26      0.002032233506
  27     -0.002140114998
  28     -0.000116348707
  29      0.014575386262
  30     -0.097449311070
  31      0.167350597544
  32      0.010941990830
  33     -0.016687078642
  34      0.011167264388
  35     -0.022232123779
  36      0.077943282950
  37     -0.021571095711
  38      0.000827753324
  39      0.003856724835
  40     -0.004360928512
  41     -0.000693026941
  42      0.004077519796
  43      0.014104152784
  44     -0.093770234688
  45      0.158908796312
  46     -0.010544669203
  47     -0.015464449869
  48     -0.012661465187
  49      0.020797050173
  50      0.073783008190
  51      0.026121857146
  52      0.000608261552
  53     -0.003460836191
  54     -0.004597056229
  55      0.000103789026
  56     -0.004030306651
 Ene=   0.13149679838909E+01
 Spin= Alpha
 Occup=    0.000000
   1     -0.079392181315
   2      1.117104472095
   3      2.827554441027
   4      0.001827367599
   5      0.170159837772
   6      0.007734716327
   7      0.005420388428
   8      0.451575635119
   9      0.020611549295
  10     -0.160963855396
  11      0.005126841579
  12     -0.001959259232
  13      0.278238179646
  14      0.024385856618
  15     -0.155298860864
  16      1.185394139146
  17     -3.197680287436
  18      0.002716164460
  19      0.251845696632
  20      0.011116784796
  21      0.007845563310
  22      0.940521846560
  23      0.040826825639
  24     -0.009657220345
  25      0.001165145344
  26     -0.019902031548
  27      0.020872713317
  28      0.001988408776
  29     -0.140525823612
  30      0.937174276691
  31     -1.600151995346
  32     -0.103407427273
  33      0.163466681417
  34     -0.109729264232
  35      0.204052151489
  36     -0.755280500390
  37      0.201899510143
  38     -0.007615133722
  39     -0.037560630951
  40      0.041947072204
  41      0.006711820482
  42     -0.039834750794
  43     -0.140192874843
  44      0.934500828610
  45     -1.593285268055
  46      0.106746456857
  47      0.151203856999
  48      0.123650453470
  49     -0.217088623850
  50     -0.728725887528
  51     -0.265712460214
  52     -0.006442552797
  53      0.034026373842
  54      0.045752088966
  55     -0.000969646010
  56      0.039517064098
 Ene=   0.14001173177015E+01
 Spin= Alpha
 Occup=    0.000000
   1     -0.000000039108
   2      0.001217737842
   3      0.000181375169
   4      0.252286596451
   5     -0.014645055359
   6      0.280163150410
   7      1.241541972872
   8     -0.069688674048
   9      1.378813999781
  10     -0.001954560147
  11     -0.115710796679
  12     -0.005440744317
  13      0.012174108456
  14     -0.128255223340
  15     -0.000330176351
  16      0.002132249010
  17     -0.004125663822
  18      0.246639254159
  19     -0.014890220184
  20      0.273875212448
  21     -0.663190632561
  22      0.040086290010
  23     -0.736421743864
  24     -0.001014438462
  25     -0.058500684114
  26     -0.003013167497
  27      0.006307202557
  28     -0.064841414018
  29     -0.166730582069
  30      1.294481404118
  31     -3.030093644267
  32      0.028694860932
  33      0.238588980293
  34      0.039924760224
  35      0.502321060876
  36     -1.080622869904
  37      0.522401308962
  38     -0.025645762856
  39     -0.024488630796
  40      0.058954949146
  41      0.033345921436
  42     -0.022784705449
  43      0.167204503984
  44     -1.297173433976
  45      3.033390349314
  46      0.023149235757
  47     -0.242848798989
  48      0.017606296496
  49      0.523559565692
  50      1.022456399601
  51      0.616882812937
  52      0.024724471985
  53     -0.020902291131
  54     -0.061753350130
  55     -0.028068930787
  56     -0.027516319098
 Ene=   0.14001173177015E+01
 Spin= Alpha
 Occup=    0.000000
   1      0.000084711117
   2     -0.001276320051
   3     -0.002602080289
   4      0.012500065071
   5     -0.001219834805
   6      0.013866298698
   7      0.061492630230
   8     -0.006692982597
   9      0.068215736549
  10     -0.000070636066
  11     -0.005736592693
  12     -0.000642727216
  13      0.000427319685
  14     -0.006355109523
  15      0.000361243204
  16     -0.002605481373
  17      0.006589069017
  18      0.012202269497
  19     -0.001004459165
  20      0.013580625335
  21     -0.032856941016
  22      0.000220294103
  23     -0.036606688409
  24      0.000011013845
  25     -0.002895612437
  26     -0.000183895525
  27      0.000191607380
  28     -0.003228540897
  29     -0.008256621751
  30      0.064071731572
  31     -0.150554004279
  32      0.001661620448
  33      0.011763671490
  34      0.001901988439
  35      0.024815468350
  36     -0.053201594769
  37      0.026143614921
  38     -0.001232972407
  39     -0.001272435378
  40      0.002893931217
  41      0.001565266685
  42     -0.001167064780
  43      0.008295905471
  44     -0.064391759524
  45      0.150001506711
  46      0.000892106451
  47     -0.012100649287
  48      0.000955033195
  49      0.026059447353
  50      0.051058784868
  51      0.030351072713
  52      0.001269643662
  53     -0.000976684517
  54     -0.003083249296
  55     -0.001482802147
  56     -0.001343167203
 Ene=   0.14833850915872E+01
 Spin= Alpha
 Occup=    0.000000
   1     -0.000020039401
   2      0.000408097292
   3      0.000565389138
   4      0.036176307327
   5      0.001285713083
   6     -0.032511129275
   7     -0.062314299911
   8      0.000454427404
   9      0.056129984672
  10      0.010895953846
  11      0.624927426354
  12      0.022696517542
  13      0.044026063808
  14     -0.560758556686
  15     -0.000200992370
  16      0.001420061120
  17     -0.003566470129
  18     -0.166138484076
  19     -0.005167697867
  20      0.149335308254
  21     -0.056960343878
  22     -0.000661310180
  23      0.051261638762
  24     -0.002178566838
  25     -0.141849021385
  26     -0.004964362964
  27     -0.009743701114
  28      0.127294885381
  29      0.000070971868
  30     -0.000446969318
  31      0.001127853439
  32      0.031957428186
  33      0.000863765043
  34     -0.028484418746
  35      0.114604534737
  36      0.003645281963
  37     -0.103571739444
  38      0.137979707645
  39     -0.102989630700
  40      0.013428038480
  41      0.073388504497
  42      0.097452192524
  43      0.000070042413
  44     -0.000439115359
  45      0.001107417849
  46      0.031297969223
  47      0.000866520273
  48     -0.028386867762
  49      0.115715230077
  50      0.003623935773
  51     -0.103458132586
  52     -0.141377077478
  53     -0.098808440869
  54     -0.020709565225
  55     -0.087328702739
  56      0.083648424698
 Ene=   0.14833850915872E+01
 Spin= Alpha
 Occup=    0.000000
   1     -0.000031335314
   2      0.000434485525
   3      0.000547835418
   4      0.000295778106
   5      0.000174291448
   6     -0.000261095765
   7     -0.000519140782
   8      0.002133735028
   9      0.000521231395
  10     -0.000070785045
  11      0.005102346010
  12      0.000447975480
  13      0.000161056038
  14     -0.004613475599
  15     -0.000212731882
  16      0.001472275249
  17     -0.003428095212
  18     -0.001373718929
  19     -0.000091586670
  20      0.001205886919
  21     -0.000434780886
  22      0.000897346782
  23      0.000484663504
  24     -0.000060232410
  25     -0.001158161004
  26     -0.000012237444
  27     -0.000039085826
  28      0.001048985151
  29      0.000061630584
  30     -0.000389105932
  31      0.001028126212
  32      0.000354501582
  33     -0.000125633700
  34     -0.000124144443
  35      0.000739931093
  36      0.000199509160
  37     -0.001145612439
  38      0.001109668417
  39     -0.000807214553
  40      0.000071624887
  41      0.000678171821
  42      0.000883413147
  43      0.000055268200
  44     -0.000342996582
  45      0.000921396704
  46      0.000163725475
  47     -0.000099356568
  48     -0.000348911894
  49      0.001133171684
  50      0.000128815072
  51     -0.000553984467
  52     -0.001178840103
  53     -0.000837818259
  54     -0.000208247251
  55     -0.000622901002
  56      0.000616309835
 Ene=   0.15086367941585E+01
 Spin= Alpha
 Occup=    0.000000
   1      0.000763956330
   2     -0.019098475325
   3     -0.012971026912
   4      0.000020758154
   5     -0.012536407523
   6     -0.000305301523
   7      0.000166994964
   8     -0.166461133166
   9     -0.005910016927
  10      0.000910768711
  11      0.000072917430
  12     -0.014766098761
  13      0.001135272407
  14      0.000439436557
  15      0.013127946517
  16     -0.091991569409
  17      0.228934412490
  18      0.000838256193
  19      0.013905215062
  20      0.000751937123
  21     -0.001684555787
  22     -0.067579172857
  23     -0.003672394705
  24      0.002317653230
  25      0.000087660781
  26     -0.002911327507
  27     -0.003424167422
  28     -0.000420118330
  29     -0.006790243965
  30      0.043239928301
  31     -0.100536690320
  32     -0.010684535148
  33      0.008795097710
  34     -0.011784553137
  35      0.021375592859
  36     -0.021283570952
  37      0.023441915498
  38      0.001941263050
  39     -0.003969162290
  40      0.001925561632
  41     -0.003673200421
  42     -0.004730368473
  43     -0.006532531158
  44      0.041157417403
  45     -0.095268198852
  46      0.011293564981
  47      0.006633618372
  48      0.012615356779
  49     -0.021783862985
  50     -0.016137196077
  51     -0.024288299546
  52      0.002304017209
  53      0.003760634686
  54      0.002265826808
  55     -0.004470742806
  56      0.003736930803
 Ene=   0.15086367941585E+01
 Spin= Alpha
 Occup=    0.000000
   1      0.013816996175
   2     -0.345438472195
   3     -0.234591266805
   4     -0.001643018752
   5     -0.226542062691
   6     -0.009499433428
   7     -0.025609878524
   8     -3.009504356976
   9     -0.129493393945
  10      0.019584853169
  11      0.011952517958
  12     -0.266298430721
  13      0.022506441396
  14      0.003829744980
  15      0.237445742635
  16     -1.663851054515
  17      4.140708736746
  18      0.002543652066
  19      0.251726865216
  20      0.011548964692
  21     -0.012431755868
  22     -1.222989684608
  23     -0.054724099684
  24      0.042311629743
  25      0.000812088117
  26     -0.052619635898
  27     -0.061921256758
  28     -0.004966325092
  29     -0.120805038244
  30      0.765816957390
  31     -1.777300531744
  32     -0.197558774786
  33      0.151581489767
  34     -0.214685832057
  35      0.388032141288
  36     -0.362772696773
  37      0.419177350972
  38      0.037151988746
  39     -0.072586556249
  40      0.034246316284
  41     -0.066370517554
  42     -0.083849162294
  43     -0.120169475283
  44      0.760708165461
  45     -1.764227488920
  46      0.200330628326
  47      0.127693988304
  48      0.227136128803
  49     -0.392044629557
  50     -0.313564604116
  51     -0.446957788212
  52      0.039245960159
  53      0.066305638357
  54      0.041457971838
  55     -0.081484114560
  56      0.070082939000
 Ene=   0.15153358954511E+01
 Spin= Alpha
 Occup=    0.000000
   1      0.000000189713
   2     -0.000004826267
   3     -0.000003490418
   4     -0.000035139855
   5     -0.000003717772
   6      0.000027674723
   7      0.000066753128
   8     -0.000044641843
   9      0.000043156353
  10      0.619197920088
  11     -0.010335605346
  12      0.075622808830
  13      0.356211339546
  14      0.031064431453
  15      0.000003434183
  16     -0.000023893773
  17      0.000058348302
  18      0.000122087266
  19      0.000007800375
  20     -0.000114274951
  21      0.000024298537
  22     -0.000013491644
  23     -0.000094976510
  24      0.083650074154
  25     -0.001230710360
  26      0.010221067276
  27      0.048134057131
  28      0.004010781732
  29     -0.000008970713
  30      0.000058472751
  31     -0.000120052458
  32      0.019430956471
  33      0.000599212366
  34     -0.017475158354
  35     -0.146117435589
  36     -0.004456296507
  37      0.131377187368
  38     -0.039992429009
  39      0.100262065435
  40     -0.001520056939
  41     -0.016962753024