[Molden Format]
[Title]
generated by TRESC, imaginary part1 of MOs of job Ni0-C2H4
 
[Atoms] AU
Ni   1  28    1.8539796126    6.7825327278   -0.4903308426
 C   2   6    4.6704257640    4.7931727241    1.2726747479
 C   3   6    5.0465532453    4.7581863879   -1.3126919263
 H   4   1    5.6975577332    6.1191094603    2.4870942128
 H   5   1    3.7846974132    3.1964352679    2.2493349313
 H   6   1    4.4712691419    3.1312517299   -2.4574086438
 H   7   1    6.3839198639    6.0535352724   -2.2192553710
[GTO]
  1 0
 s  6 1.0
    71074.8032110000        0.0049184150
    10672.0209410000        0.0200173975
     2428.1389007000        0.0784715325
      685.5359514800        0.2482002663
      223.1007286300        0.4665280195
       76.8420140400        0.3374151926
 s  1 1.0
      148.7112201600        1.0000000000
 s  1 1.0
       17.4591549900        1.0000000000
 s  1 1.0
        7.1625280700        1.0000000000
 s  1 1.0
       12.5561371300        1.0000000000
 s  1 1.0
        2.0735740500        1.0000000000
 s  1 1.0
        0.8538264100        1.0000000000
 s  1 1.0
        0.1053676600        1.0000000000
 s  1 1.0
        0.0381340900        1.0000000000
 p  5 1.0
      916.7360866200        0.0107030171
      216.0613991300        0.0711467350
       68.3839148200        0.2646675976
       24.5938439500        0.5093159720
        9.1392960200        0.3283291628
 p  1 1.0
        4.7193371700        1.0000000000
 p  1 1.0
        1.8161849200        1.0000000000
 p  1 1.0
        0.6784075100        1.0000000000
 d  4 1.0
       47.0938321100        0.0346401353
       13.1464639700        0.1833736831
        4.4170548900        0.4455621030
        1.4771565100        0.5627236040
 d  1 1.0
        0.4373592200        1.0000000000
 p  1 1.0
        0.1465880000        1.0000000000
 f  1 1.0
        2.1740000000        1.0000000000
 
  2 0
 s  5 1.0
     1238.4016938000        0.0059599745
      186.2900499200        0.0422621111
       42.2511763500        0.1866575214
       11.6765579300        0.4675815865
        3.5930506500        0.4422897287
 s  1 1.0
        0.4024514700        1.0000000000
 s  1 1.0
        0.1309018300        1.0000000000
 p  3 1.0
        9.4680970600        0.0570294585
        2.0103545100        0.3130471495
        0.5477100500        0.7605135301
 p  1 1.0
        0.1526861400        1.0000000000
 d  1 1.0
        0.8000000000        1.0000000000
 
  3 0
 s  5 1.0
     1238.4016938000        0.0059599745
      186.2900499200        0.0422621111
       42.2511763500        0.1866575214
       11.6765579300        0.4675815865
        3.5930506500        0.4422897287
 s  1 1.0
        0.4024514700        1.0000000000
 s  1 1.0
        0.1309018300        1.0000000000
 p  3 1.0
        9.4680970600        0.0570294585
        2.0103545100        0.3130471495
        0.5477100500        0.7605135301
 p  1 1.0
        0.1526861400        1.0000000000
 d  1 1.0
        0.8000000000        1.0000000000
 
  4 0
 s  3 1.0
       13.0107010000        0.0391282527
        1.9622572000        0.2855840539
        0.4445379600        0.7689908602
 s  1 1.0
        0.1219496200        1.0000000000
 p  1 1.0
        0.8000000000        1.0000000000
 
  5 0
 s  3 1.0
       13.0107010000        0.0391282527
        1.9622572000        0.2855840539
        0.4445379600        0.7689908602
 s  1 1.0
        0.1219496200        1.0000000000
 p  1 1.0
        0.8000000000        1.0000000000
 
  6 0
 s  3 1.0
       13.0107010000        0.0391282527
        1.9622572000        0.2855840539
        0.4445379600        0.7689908602
 s  1 1.0
        0.1219496200        1.0000000000
 p  1 1.0
        0.8000000000        1.0000000000
 
  7 0
 s  3 1.0
       13.0107010000        0.0391282527
        1.9622572000        0.2855840539
        0.4445379600        0.7689908602
 s  1 1.0
        0.1219496200        1.0000000000
 p  1 1.0
        0.8000000000        1.0000000000
 
[5D]
[7F]
[9G]
[MO]
 Ene=  -0.30335055385707E+03
 Spin= Alpha
 Occup=    0.999999
   1     -0.534117964564
   2     -0.031645062485
   3     -0.025682228287
   4     -0.000590278289
   5      0.014125340531
   6     -0.000498674091
   7      0.000255165387
   8     -0.000088823344
   9      0.000030948900
  10      0.000000796685
  11     -0.000000564346
  12      0.000000135622
  13      0.000000352244
  14     -0.000000247447
  15      0.000000050804
  16     -0.000002212405
  17      0.000001494602
  18     -0.000000342017
  19      0.000004565251
  20     -0.000003056231
  21      0.000000712266
  22     -0.000000162744
  23      0.000000217134
  24     -0.000000305248
  25      0.000000919302
  26     -0.000002171128
  27      0.000002081761
  28     -0.000001092528
  29      0.000001040054
  30     -0.000002931494
  31      0.000006986821
  32     -0.000022008296
  33      0.000014702711
  34     -0.000003452136
  35     -0.000000012269
  36     -0.000000034458
  37      0.000000023077
  38      0.000000009721
  39      0.000000018848
  40      0.000000020597
  41      0.000000122479
  42     -0.000000103611
  43     -0.000004378351
  44      0.000029280937
  45     -0.000001231137
  46      0.000000896573
  47     -0.000001108610
  48     -0.000010503855
  49      0.000006859618
  50      0.000000115036
  51     -0.000000906574
  52      0.000000887433
  53     -0.000000568559
  54      0.000000491592
  55     -0.000001304721
  56     -0.000000106705
  57     -0.000004309582
  58      0.000028760370
  59     -0.000001504214
  60      0.000000929205
  61      0.000000680522
  62     -0.000009933378
  63      0.000006797844
  64     -0.000003562499
  65     -0.000001191937
  66     -0.000000123340
  67      0.000000123526
  68      0.000000632055
  69     -0.000001417710
  70     -0.000001679820
  71     -0.000006566143
  72      0.000000162118
  73      0.000000005885
  74     -0.000000461303
  75     -0.000001683963
  76     -0.000006583614
  77      0.000000097365
  78     -0.000000102453
  79     -0.000000465347
  80     -0.000001672653
  81     -0.000006552684
  82     -0.000000059368
  83     -0.000000087209
  84      0.000000488730
  85     -0.000001672166
  86     -0.000006548054
  87      0.000000015727
  88      0.000000034508
  89      0.000000499873
 Ene=  -0.30334951341857E+03
 Spin= Alpha
 Occup=    0.000001
   1      0.000453787656
   2      0.000026885519
   3      0.000021822941
   4      0.000000502931
   5     -0.000012004024
   6      0.000000423201
   7     -0.000000216588
   8      0.000000074712
   9     -0.000000026186
  10     -0.000000000568
  11     -0.000000001420
  12     -0.000000000910
  13     -0.000000000460
  14      0.000000002617
  15      0.000000002889
  16      0.000000001980
  17     -0.000000003415
  18      0.000000000307
  19     -0.000000003898
  20      0.000000003425
  21     -0.000000000224
  22     -0.000000000577
  23     -0.000000003008
  24     -0.000000010046
  25     -0.000000000832
  26      0.000000001851
  27     -0.000000001583
  28      0.000000001419
  29      0.000000003486
  30      0.000000002569
  31     -0.000000005900
  32      0.000000018485
  33     -0.000000012263
  34      0.000000000837
  35      0.000000004143
  36     -0.000000000643
  37      0.000000002057
  38      0.000000003290
  39      0.000000008073
  40     -0.000000000580
  41     -0.000000000918
  42      0.000000000129
  43      0.000000002645
  44     -0.000000016050
  45      0.000000000991
  46     -0.000000000769
  47      0.000000000610
  48      0.000000006429
  49     -0.000000006350
  50     -0.000000003049
  51      0.000000000550
  52     -0.000000001167
  53      0.000000000399
  54     -0.000000000468
  55      0.000000000732
  56      0.000000000086
  57      0.000000004508
  58     -0.000000032255
  59      0.000000001303
  60     -0.000000000817
  61     -0.000000000887
  62      0.000000011168
  63     -0.000000005083
  64      0.000000000997
  65      0.000000000977
  66     -0.000000000353
  67      0.000000000068
  68     -0.000000000556
  69      0.000000001349
  70      0.000000001765
  71      0.000000005622
  72     -0.000000000167
  73     -0.000000000256
  74      0.000000000284
  75      0.000000000654
  76      0.000000004256
  77      0.000000000144
  78      0.000000000017
  79      0.000000000721
  80      0.000000002056
  81      0.000000006706
  82     -0.000000000200
  83      0.000000000061
  84     -0.000000000242
  85      0.000000001161
  86      0.000000005435
  87     -0.000000000017
  88      0.000000000139
  89     -0.000000000500
 Ene=  -0.36644462695018E+02
 Spin= Alpha
 Occup=    1.000000
   1     -0.318304043796
   2     -0.126024656669
   3      0.692412210245
   4      0.444515287673
   5     -0.034166937620
   6      0.018297349257
   7     -0.002718401746
   8      0.000778743424
   9     -0.000244649216
  10      0.000007811117
  11     -0.000003559583
  12     -0.000001332953
  13      0.000046615618
  14     -0.000030873883
  15      0.000006918088
  16      0.000002187206
  17     -0.000001519677
  18      0.000000495278
  19     -0.000037030590
  20      0.000024747407
  21     -0.000005881905
  22     -0.000165760883
  23      0.000013695197
  24      0.000040571211
  25     -0.000145101435
  26      0.000331137765
  27      0.000029893409
  28      0.000006233556
  29     -0.000021800822
  30      0.000070641723
  31     -0.000163887413
  32      0.000228010398
  33     -0.000152266035
  34      0.000035920103
  35      0.000000201912
  36      0.000000452522
  37     -0.000000419051
  38     -0.000000194185
  39     -0.000000883995
  40     -0.000001002773
  41     -0.000005455034
  42      0.000001570369
  43      0.000047035978
  44     -0.000298227328
  45      0.000014453995
  46     -0.000010430641
  47      0.000012443364
  48      0.000107613003
  49     -0.000071497468
  50      0.000002437642
  51      0.000009093864
  52     -0.000011328645
  53      0.000007654903
  54     -0.000006533208
  55      0.000017474617
  56      0.000001609385
  57      0.000046180948
  58     -0.000291726821
  59      0.000017457846
  60     -0.000010840923
  61     -0.000007451610
  62      0.000103171998
  63     -0.000069870752
  64      0.000033441795
  65      0.000013003188
  66      0.000002684180
  67     -0.000001887735
  68     -0.000008515721
  69      0.000019038478
  70      0.000016547247
  71      0.000062667566
  72     -0.000002706972
  73      0.000001345221
  74      0.000003609994
  75      0.000016267398
  76      0.000062221354
  77     -0.000002587484
  78      0.000001558940
  79      0.000003676915
  80      0.000016327624
  81      0.000062249046
  82     -0.000001236028
  83      0.000001431004
  84     -0.000004397752
  85      0.000016194900
  86      0.000062015085
  87     -0.000001446144
  88      0.000001042193
  89     -0.000004437210
 Ene=  -0.36616063091397E+02
 Spin= Alpha
 Occup=    0.000000
   1      0.000003013969
   2      0.000001193555
   3     -0.000006571311
   4     -0.000004216259
   5      0.000000344196
   6     -0.000000175979
   7      0.000000026038
   8     -0.000000006596
   9      0.000000001790
  10     -0.000000007485
  11     -0.000001259606
  12     -0.000006207009
  13     -0.000000002135
  14      0.000000176217
  15      0.000000856664
  16      0.000000001213
  17     -0.000000117474
  18     -0.000000586155
  19     -0.000000000344
  20      0.000000047719
  21      0.000000240387
  22     -0.000000045343
  23     -0.000000166168
  24     -0.000000371212
  25     -0.000000000628
  26      0.000000024236
  27      0.000000014977
  28      0.000000051574
  29      0.000000096738
  30      0.000000001245
  31     -0.000000008530
  32     -0.000000000930
  33     -0.000000009169
  34     -0.000000054611
  35     -0.000000024407
  36      0.000000004317
  37     -0.000000011749
  38     -0.000000016851
  39     -0.000000044664
  40      0.000000003026
  41      0.000000004488
  42     -0.000000001009
  43      0.000000001291
  44     -0.000000041755
  45      0.000000002627
  46      0.000000003551
  47      0.000000002271
  48     -0.000000045830
  49     -0.000000057334
  50      0.000000015803
  51     -0.000000000759
  52      0.000000001332
  53     -0.000000000611
  54      0.000000003370
  55      0.000000001574
  56      0.000000000502
  57     -0.000000002228
  58      0.000000044983
  59     -0.000000003195
  60     -0.000000002750
  61      0.000000001632
  62      0.000000033540
  63      0.000000052578
  64      0.000000026759
  65      0.000000000857
  66      0.000000000231
  67     -0.000000000606
  68     -0.000000000606
  69     -0.000000000783
  70      0.000000012919
  71      0.000000033837
  72     -0.000000001160
  73      0.000000001982
  74     -0.000000004603
  75     -0.000000014046
  76     -0.000000020484
  77      0.000000000604
  78      0.000000000164
  79      0.000000000163
  80      0.000000012803
  81      0.000000013323
  82      0.000000000262
  83     -0.000000000545
  84     -0.000000001083
  85     -0.000000011867
  86     -0.000000026660
  87      0.000000001122
  88     -0.000000001722
  89     -0.000000002979
 Ene=  -0.32189469942261E+02
 Spin= Alpha
 Occup=    0.689444
   1     -0.000009846789
   2     -0.000005299620
   3      0.000115128113
   4      0.000098527133
   5     -0.000151696387
   6     -0.000119630867
   7      0.000126875317
   8     -0.000104787981
   9     -0.000288487211
  10     -0.018329800159
  11      0.591269471633
  12      0.012711339039
  13      0.000693522136
  14     -0.009426985774
  15     -0.000163876589
  16     -0.000764491196
  17      0.016325013429
  18      0.000320735087
  19      0.000400455538
  20     -0.005842894089
  21     -0.000095678290
  22     -0.000005609166
  23      0.000002293183
  24     -0.000002612407
  25      0.000001287809
  26     -0.000014269247
  27      0.000019789847
  28     -0.000005123158
  29      0.000010582700
  30     -0.000000365376
  31      0.000073404256
  32     -0.000345946708
  33      0.001489356709
  34     -0.000016588296
  35     -0.000005580941
  36     -0.000019538082
  37     -0.000036000612
  38     -0.000004456533
  39      0.000007708386
  40     -0.000053958944
  41      0.000003938307
  42     -0.000004151485
  43      0.000102134951
  44      0.000088521063
  45     -0.000012478861
  46      0.000024951785
  47     -0.000019435874
  48     -0.000073931997
  49      0.000049415553
  50     -0.000017246163
  51      0.000000369773
  52     -0.000009544959
  53      0.000032201389
  54     -0.000000462480
  55      0.000042937936
  56     -0.000003779922
  57      0.000107223636
  58      0.000011577341
  59     -0.000016126533
  60      0.000024598680
  61      0.000014050166
  62     -0.000075889918
  63      0.000056388085
  64     -0.000049827032
  65      0.000006449636
  66      0.000010132632
  67     -0.000020999233
  68     -0.000003488185
  69      0.000052430075
  70     -0.000023310095
  71      0.000008138240
  72      0.000017527180
  73      0.000018081915
  74      0.000003982030
  75     -0.000043129197
  76      0.000261911542
  77     -0.000037040299
  78      0.000045859507
  79     -0.000046882971
  80     -0.000043654146
  81      0.000275073116
  82     -0.000051518071
  83      0.000048327220
  84      0.000036620049
  85     -0.000024846923
  86      0.000018284161
  87      0.000015972999
  88      0.000019423467
  89      0.000003975810
 Ene=  -0.32177956573284E+02
 Spin= Alpha
 Occup=    0.339223
   1     -0.000000617012
   2     -0.000000334270
   3      0.000007348466
   4      0.000006238475
   5     -0.000009679437
   6     -0.000007677269
   7      0.000008114404
   8     -0.000006711596
   9     -0.000018412455
  10     -0.011859116449
  11      0.014281775060
  12     -0.032703916807
  13      0.000199950572
  14     -0.000232514414
  15      0.000533704828
  16     -0.000335869910
  17      0.000398196612
  18     -0.000906231441
  19      0.000126047684
  20     -0.000145663733
  21      0.000324062709
  22     -0.000000447327
  23     -0.000000118900
  24      0.000000167686
  25      0.000000330040
  26     -0.000000881175
  27      0.000000700796
  28     -0.000002542561
  29      0.000001848334
  30     -0.000001213269
  31      0.000003850319
  32     -0.000044323116
  33      0.000043727857
  34     -0.000078707323
  35      0.000000124262
  36      0.000000012715
  37     -0.000000504472
  38      0.000000028342
  39     -0.000000524574
  40     -0.000000390988
  41     -0.000000064462
  42     -0.000000042942
  43      0.000008888784
  44     -0.000037871460
  45     -0.000000656087
  46      0.000000604684
  47     -0.000000946534
  48     -0.000014811873
  49      0.000007728672
  50      0.000023127960
  51     -0.000001277634
  52     -0.000003422961
  53      0.000002787761
  54     -0.000000729486
  55      0.000002662846
  56     -0.000000466254
  57      0.000004467507
  58      0.000044323988
  59     -0.000002054969
  60      0.000001362814
  61      0.000001021971
  62     -0.000002198327
  63     -0.000000391643
  64      0.000023029120
  65      0.000000410954
  66     -0.000001337975
  67      0.000000883991
  68     -0.000000660090
  69      0.000002121718
  70     -0.000002863167
  71      0.000015164635
  72     -0.000001671731
  73      0.000001917466
  74     -0.000003796971
  75     -0.000003024787
  76      0.000016739380
  77     -0.000002312574
  78      0.000001639624
  79     -0.000004150283
  80     -0.000001428251
  81      0.000002872759
  82     -0.000000717025
  83      0.000000273408
  84     -0.000000877076
  85     -0.000001312081
  86      0.000001162952
  87      0.000000078147
  88      0.000000621880
  89     -0.000001047050
 Ene=  -0.31539603156809E+02
 Spin= Alpha
 Occup=    0.876772
   1      0.000009239879
   2      0.000004642450
   3     -0.000076461113
   4     -0.000035451527
   5      0.000074142191
   6      0.000053597007
   7     -0.000052947717
   8      0.000036155323
   9      0.000126882375
  10      0.592219178394
  11      0.327896720133
  12      0.048850066059
  13      0.003616614719
  14      0.002454989159
  15      0.000306869688
  16      0.009538589430
  17      0.005042022109
  18      0.000785573934
  19     -0.002858917319
  20     -0.001415330342
  21     -0.000237075994
  22      0.000001869040
  23     -0.000001615438
  24      0.000000919341
  25     -0.000000045880
  26      0.000002263524
  27     -0.000006723936
  28      0.000005109346
  29     -0.000002025391
  30      0.000024103134
  31     -0.000017636033
  32      0.000727238150
  33      0.000235400771
  34      0.000067030301
  35     -0.000009555963
  36     -0.000032258374
  37     -0.000044428612
  38     -0.000004243928
  39      0.000010027297
  40     -0.000072184965
  41      0.000015601005
  42      0.000001556453
  43     -0.000044989380
  44     -0.000040590810
  45      0.000011315355
  46      0.000000327186
  47      0.000008663507
  48      0.000029917712
  49     -0.000016681757
  50      0.000011319622
  51      0.000001237986
  52      0.000015985703
  53      0.000000762153
  54      0.000014096871
  55     -0.000016123057
  56      0.000001295715
  57     -0.000048185047
  58      0.000008815820
  59      0.000012338150
  60      0.000000763312
  61     -0.000004877124
  62      0.000033383830
  63     -0.000018994444
  64      0.000026207875
  65     -0.000005822048
  66     -0.000012226499
  67     -0.000003484431
  68      0.000018696914
  69     -0.000017023864
  70      0.000018542337
  71     -0.000131941286
  72      0.000028041454
  73     -0.000009782606
  74      0.000024851972
  75      0.000009661222
  76      0.000015251978
  77      0.000002355465
  78      0.000015277114
  79     -0.000004355747
  80      0.000010504012
  81      0.000008313337
  82      0.000002600308
  83      0.000014748339
  84      0.000002322636
  85      0.000018982599
  86     -0.000140092034
  87      0.000035564534
  88     -0.000011377998
  89     -0.000017752729
 Ene=  -0.31529987762340E+02
 Spin= Alpha
 Occup=    0.656786
   1      0.000000173390
   2      0.000000110072
   3     -0.000002974865
   4     -0.000001300730
   5      0.000003418828
   6      0.000002598122
   7     -0.000002572198
   8      0.000002027691
   9      0.000005882061
  10     -0.041150730744
  11     -0.010940958062
  12      0.334324388140
  13     -0.000249500524
  14     -0.000071937562
  15      0.001928229473
  16     -0.000658906923
  17     -0.000174306625
  18      0.005413205671
  19      0.000193280007
  20      0.000052135977
  21     -0.001607550311
  22      0.000002277838
  23      0.000008008302
  24     -0.000005512894
  25     -0.000001133091
  26      0.000001025136
  27      0.000001543526
  28      0.000007100805
  29     -0.000004853808
  30     -0.000000704063
  31     -0.000000500581
  32     -0.000038745318
  33     -0.000014541842
  34      0.000363136750
  35     -0.000001258425
  36      0.000000102013
  37      0.000002210298
  38     -0.000001987991
  39      0.000006134231
  40      0.000001463525
  41     -0.000001231580
  42     -0.000001129388
  43     -0.000015124484
  44      0.000224856562
  45     -0.000003291440
  46      0.000002160483
  47     -0.000001623143
  48      0.000048761058
  49     -0.000021698975
  50     -0.000122743611
  51      0.000004974941
  52      0.000011843093
  53     -0.000008844319
  54      0.000000034007
  55     -0.000002818679
  56      0.000001295055
  57      0.000010831964
  58     -0.000227094519
  59      0.000004475533
  60     -0.000002956456
  61     -0.000001133819
  62     -0.000008614822
  63      0.000016074778
  64     -0.000130895170
  65      0.000001327429
  66      0.000011505410
  67     -0.000007198356
  68     -0.000002775328
  69      0.000003640020
  70      0.000004100277
  71     -0.000038818904
  72      0.000004057628
  73     -0.000004118734
  74      0.000012806267
  75      0.000004320980
  76     -0.000040670671
  77      0.000004645787
  78     -0.000004063558
  79      0.000013222151
  80     -0.000002745860
  81      0.000032983439
  82     -0.000006665197
  83      0.000003391990
  84      0.000010215799
  85     -0.000002815437
  86      0.000035295282
  87     -0.000007266541
  88      0.000003628403
  89      0.000010506775
 Ene=  -0.31523638285278E+02
 Spin= Alpha
 Occup=    0.432077
   1      0.000012540906
   2      0.000006277754
   3     -0.000103557082
   4     -0.000046495001
   5      0.000099582097
   6      0.000071428794
   7     -0.000070483033
   8      0.000047956098
   9      0.000168845844
  10      0.335828227626
  11     -0.281201624130
  12     -0.010125552790
  13      0.001924988619
  14     -0.001685150480
  15     -0.000074667536
  16      0.005477680712
  17     -0.004550438083
  18     -0.000149990442
  19     -0.001687190740
  20      0.001379133834
  21      0.000034361866
  22      0.000002299907
  23     -0.000002589531
  24      0.000001521623
  25     -0.000000737945
  26      0.000001824439
  27     -0.000009335264
  28      0.000003628722
  29     -0.000004033512
  30      0.000012095030
  31     -0.000031753453
  32      0.000507461615
  33     -0.000393369279
  34      0.000012527309
  35     -0.000000207849
  36     -0.000000837568
  37      0.000006319319
  38      0.000001788831
  39     -0.000001270865
  40      0.000007099282
  41      0.000006285943
  42      0.000002179945
  43     -0.000059254983
  44     -0.000066246801
  45      0.000009898148
  46     -0.000008051085
  47      0.000010955838
  48      0.000034986048
  49     -0.000024666455
  50      0.000021156611
  51     -0.000000425703
  52      0.000011850782
  53     -0.000010894092
  54      0.000008891718
  55     -0.000024680638
  56      0.000001693714
  57     -0.000064930203
  58      0.000023721344
  59      0.000010854060
  60     -0.000007198485
  61     -0.000007101318
  62      0.000041602877
  63     -0.000031049029
  64      0.000041562084
  65     -0.000006465055
  66     -0.000011093595
  67      0.000006387209
  68      0.000012815997
  69     -0.000029298686
  70      0.000018197058
  71     -0.000069549148
  72      0.000008321210
  73     -0.000011346931
  74      0.000010447780
  75      0.000019043297
  76     -0.000081438798
  77      0.000014222070
  78     -0.000007557187
  79      0.000013264900
  80      0.000020168172
  81     -0.000095592133
  82      0.000020403528
  83     -0.000009298295
  84     -0.000012470561
  85      0.000019444959
  86     -0.000083345797
  87      0.000013681910
  88     -0.000013307238
  89     -0.000011335999
 Ene=  -0.31508999337677E+02
 Spin= Alpha
 Occup=    0.005698
   1      0.000000039102
   2      0.000000028978
   3     -0.000000797688
   4     -0.000000345706
   5      0.000000925614
   6      0.000000701104
   7     -0.000000687156
   8      0.000000525887
   9      0.000001611219
  10     -0.006814009482
  11     -0.000601028175
  12      0.074372956702
  13     -0.000044185937
  14     -0.000002629845
  15      0.000482423797
  16     -0.000107438499
  17     -0.000010335385
  18      0.001176536971
  19      0.000030955778
  20      0.000003502360
  21     -0.000345390891
  22      0.000000524845
  23      0.000001848368
  24     -0.000001248592
  25     -0.000000263519
  26      0.000000236641
  27      0.000000303358
  28      0.000001484259
  29     -0.000001028174
  30     -0.000000050704
  31     -0.000000144674
  32     -0.000005719077
  33     -0.000001659593
  34      0.000077836814
  35     -0.000000451396
  36     -0.000000038227
  37      0.000000266703
  38     -0.000000450570
  39      0.000001003976
  40      0.000000095889
  41     -0.000000175090
  42     -0.000000272801
  43     -0.000003411957
  44      0.000048063233
  45     -0.000000679413
  46      0.000000481755
  47     -0.000000322858
  48      0.000010488441
  49     -0.000004647639
  50     -0.000026222591
  51      0.000001047311
  52      0.000002601493
  53     -0.000001885029
  54      0.000000064538
  55     -0.000000682913
  56      0.000000310625
  57      0.000002231492
  58     -0.000048618139
  59      0.000001002807
  60     -0.000000623219
  61     -0.000000250751
  62     -0.000001725311
  63      0.000003359972
  64     -0.000027916574
  65      0.000000288231
  66      0.000002415110
  67     -0.000001559567
  68     -0.000000533650
  69      0.000000769882
  70      0.000000928685
  71     -0.000008797597
  72      0.000000978224
  73     -0.000000919651
  74      0.000002827343
  75      0.000000942047
  76     -0.000008535334
  77      0.000000994581
  78     -0.000000789415
  79      0.000002786901
  80     -0.000000562046
  81      0.000007192276
  82     -0.000001442066
  83      0.000000797393
  84      0.000002200667
  85     -0.000000535666
  86      0.000007045294
  87     -0.000001414339
  88      0.000000750460
  89      0.000002177302
 Ene=  -0.10268604312611E+02
 Spin= Alpha
 Occup=    0.000001
   1      0.000000000133
   2      0.000000000247
   3     -0.000000022058
   4     -0.000000052230
   5      0.000000050508
   6      0.000000089637
   7     -0.000000047851
   8     -0.000004573479
   9      0.000000659805
  10      0.000000004039
  11     -0.000000009775
  12     -0.000000015969
  13      0.000000015808
  14     -0.000000076715
  15     -0.000000049749
  16     -0.000000011701
  17      0.000000026058
  18     -0.000000090742
  19     -0.000000161566
  20      0.000000089358
  21      0.000000044809
  22      0.000000052831
  23      0.000000010034
  24      0.000000005428
  25     -0.000000025136
  26      0.000000091631
  27     -0.000000105200
  28     -0.000000152331
  29      0.000000107025
  30      0.000000055674
  31     -0.000000102418
  32     -0.000001864373
  33      0.000001374920
  34     -0.000001815528
  35     -0.000000007633
  36      0.000000005966
  37     -0.000000001091
  38      0.000000008544
  39     -0.000000013250
  40     -0.000000003541
  41     -0.000000017941
  42     -0.000579377197
  43     -0.000032663345
  44      0.000031680569
  45      0.000000070426
  46      0.000000030108
  47     -0.000000232763
  48     -0.000001370711
  49      0.000001099522
  50     -0.000003879614
  51     -0.000000804643
  52      0.000000112317
  53     -0.000000052765
  54      0.000000606290
  55     -0.000001424286
  56      0.000015773476
  57      0.000002683059
  58     -0.000009991870
  59     -0.000000014369
  60     -0.000000234972
  61      0.000001650589
  62     -0.000000318415
  63      0.000000611559
  64     -0.000003579472
  65      0.000001151397
  66     -0.000000299342
  67      0.000000170820
  68     -0.000000078453
  69      0.000000193146
  70      0.000002301751
  71     -0.000005394939
  72     -0.000001000576
  73     -0.000001624302
  74     -0.000000890960
  75      0.000002301964
  76     -0.000005489817
  77      0.000001111315
  78      0.000001606954
  79     -0.000000774602
  80     -0.000000251180
  81      0.000000239143
  82      0.000000035556
  83     -0.000000284633
  84     -0.000000359790
  85     -0.000000184974
  86      0.000000158344
  87      0.000000260938
  88      0.000000084615
  89     -0.000000217646
 Ene=  -0.10268539991606E+02
 Spin= Alpha
 Occup=    0.999999
   1     -0.000000643049
   2     -0.000000511082
   3      0.000030253039
   4      0.000068744950
   5     -0.000065781944
   6     -0.000120423430
   7      0.000064764314
   8      0.006025403709
   9     -0.000874435500
  10      0.000007498037
  11     -0.000005115464
  12      0.000002977643
  13     -0.000033134126
  14      0.000023465674
  15     -0.000018053950
  16      0.000025350053
  17     -0.000019739781
  18      0.000035880064
  19      0.000199481024
  20     -0.000130600846
  21      0.000003118070
  22     -0.000052064267
  23      0.000026606067
  24     -0.000019470316
  25      0.000044186647
  26     -0.000107025536
  27      0.000085483615
  28      0.000015764094
  29     -0.000012415522
  30     -0.000050305130
  31      0.000111318218