[Molden Format]
[Title]
generated by TRESC, real part2 of MOs of job Ni0-C2H4
 
[Atoms] AU
Ni   1  28    1.8539796126    6.7825327278   -0.4903308426
 C   2   6    4.6704257640    4.7931727241    1.2726747479
 C   3   6    5.0465532453    4.7581863879   -1.3126919263
 H   4   1    5.6975577332    6.1191094603    2.4870942128
 H   5   1    3.7846974132    3.1964352679    2.2493349313
 H   6   1    4.4712691419    3.1312517299   -2.4574086438
 H   7   1    6.3839198639    6.0535352724   -2.2192553710
[GTO]
  1 0
 s  6 1.0
    71074.8032110000        0.0049184150
    10672.0209410000        0.0200173975
     2428.1389007000        0.0784715325
      685.5359514800        0.2482002663
      223.1007286300        0.4665280195
       76.8420140400        0.3374151926
 s  1 1.0
      148.7112201600        1.0000000000
 s  1 1.0
       17.4591549900        1.0000000000
 s  1 1.0
        7.1625280700        1.0000000000
 s  1 1.0
       12.5561371300        1.0000000000
 s  1 1.0
        2.0735740500        1.0000000000
 s  1 1.0
        0.8538264100        1.0000000000
 s  1 1.0
        0.1053676600        1.0000000000
 s  1 1.0
        0.0381340900        1.0000000000
 p  5 1.0
      916.7360866200        0.0107030171
      216.0613991300        0.0711467350
       68.3839148200        0.2646675976
       24.5938439500        0.5093159720
        9.1392960200        0.3283291628
 p  1 1.0
        4.7193371700        1.0000000000
 p  1 1.0
        1.8161849200        1.0000000000
 p  1 1.0
        0.6784075100        1.0000000000
 d  4 1.0
       47.0938321100        0.0346401353
       13.1464639700        0.1833736831
        4.4170548900        0.4455621030
        1.4771565100        0.5627236040
 d  1 1.0
        0.4373592200        1.0000000000
 p  1 1.0
        0.1465880000        1.0000000000
 f  1 1.0
        2.1740000000        1.0000000000
 
  2 0
 s  5 1.0
     1238.4016938000        0.0059599745
      186.2900499200        0.0422621111
       42.2511763500        0.1866575214
       11.6765579300        0.4675815865
        3.5930506500        0.4422897287
 s  1 1.0
        0.4024514700        1.0000000000
 s  1 1.0
        0.1309018300        1.0000000000
 p  3 1.0
        9.4680970600        0.0570294585
        2.0103545100        0.3130471495
        0.5477100500        0.7605135301
 p  1 1.0
        0.1526861400        1.0000000000
 d  1 1.0
        0.8000000000        1.0000000000
 
  3 0
 s  5 1.0
     1238.4016938000        0.0059599745
      186.2900499200        0.0422621111
       42.2511763500        0.1866575214
       11.6765579300        0.4675815865
        3.5930506500        0.4422897287
 s  1 1.0
        0.4024514700        1.0000000000
 s  1 1.0
        0.1309018300        1.0000000000
 p  3 1.0
        9.4680970600        0.0570294585
        2.0103545100        0.3130471495
        0.5477100500        0.7605135301
 p  1 1.0
        0.1526861400        1.0000000000
 d  1 1.0
        0.8000000000        1.0000000000
 
  4 0
 s  3 1.0
       13.0107010000        0.0391282527
        1.9622572000        0.2855840539
        0.4445379600        0.7689908602
 s  1 1.0
        0.1219496200        1.0000000000
 p  1 1.0
        0.8000000000        1.0000000000
 
  5 0
 s  3 1.0
       13.0107010000        0.0391282527
        1.9622572000        0.2855840539
        0.4445379600        0.7689908602
 s  1 1.0
        0.1219496200        1.0000000000
 p  1 1.0
        0.8000000000        1.0000000000
 
  6 0
 s  3 1.0
       13.0107010000        0.0391282527
        1.9622572000        0.2855840539
        0.4445379600        0.7689908602
 s  1 1.0
        0.1219496200        1.0000000000
 p  1 1.0
        0.8000000000        1.0000000000
 
  7 0
 s  3 1.0
       13.0107010000        0.0391282527
        1.9622572000        0.2855840539
        0.4445379600        0.7689908602
 s  1 1.0
        0.1219496200        1.0000000000
 p  1 1.0
        0.8000000000        1.0000000000
 
[5D]
[7F]
[9G]
[MO]
 Ene=   0.88691925108552E+00
 Spin= Alpha
 Occup=    0.000000
   1      0.000007901594
   2      0.000003595238
   3     -0.000018870736
   4     -0.000000614979
   5     -0.000026798819
   6      0.000048741815
   7      0.000189365770
   8     -0.002213210137
   9      0.000124158358
  10     -0.000009780413
  11      0.000002801440
  12     -0.000001423875
  13      0.000011215109
  14     -0.000003323843
  15      0.000001129628
  16      0.000015237402
  17     -0.000000427491
  18      0.000001715376
  19      0.000032069167
  20     -0.000039851665
  21      0.000008901623
  22      0.000685471077
  23     -0.000260540078
  24     -0.000067776628
  25     -0.000565558365
  26     -0.000520167383
  27     -0.001773975245
  28      0.000614902527
  29      0.000240660845
  30      0.001243618508
  31      0.001723302967
  32     -0.001241544076
  33      0.001027038644
  34     -0.000222764070
  35      0.000000908614
  36      0.000002324828
  37     -0.000002047892
  38     -0.000000666945
  39      0.000000931404
  40     -0.000000566499
  41      0.000002212561
  42      0.000105553006
  43     -0.001268311996
  44      0.003550545443
  45      0.000251794545
  46      0.000066475610
  47     -0.000018378693
  48     -0.001240803497
  49     -0.000196400557
  50      0.000278203070
  51      0.000069848880
  52     -0.000030106920
  53      0.000046405656
  54     -0.000359544365
  55     -0.000153973043
  56      0.000099953263
  57     -0.001204214901
  58      0.003134408129
  59      0.000219983617
  60      0.000062866225
  61      0.000096747442
  62     -0.001062265926
  63     -0.000225327863
  64     -0.000757342315
  65      0.000048793326
  66     -0.000103221377
  67     -0.000093594159
  68     -0.000347922903
  69     -0.000130932430
  70     -0.000254197016
  71     -0.000271218320
  72     -0.000339428729
  73      0.000055016622
  74      0.000134721045
  75     -0.000674110940
  76     -0.001077103297
  77      0.000131671076
  78     -0.000114426398
  79     -0.000046034176
  80     -0.000659837640
  81     -0.001052808810
  82      0.000113655992
  83     -0.000118194410
  84      0.000082606175
  85     -0.000225229346
  86     -0.000255594774
  87     -0.000285556766
  88      0.000048593271
  89     -0.000224883925
 Ene=   0.10557119327898E+01
 Spin= Alpha
 Occup=    0.000000
   1     -0.000075714861
   2     -0.000038229835
   3      0.000590339219
   4      0.000978874653
   5     -0.000701137632
   6     -0.002376924781
   7      0.002083707402
   8     -0.005612959349
   9      0.001610003300
  10      0.007831487926
  11      0.010685245038
  12      0.001041475982
  13     -0.006713655547
  14     -0.009641070996
  15     -0.000891208051
  16     -0.026516827267
  17     -0.034844200982
  18     -0.003585975860
  19      0.028612176294
  20      0.036930981422
  21      0.003972202152
  22      0.008292391903
  23      0.052647098335
  24      0.031334675281
  25      0.375841839191
  26      0.163226941767
  27     -0.011152448972
  28     -0.072915444462
  29     -0.043105658327
  30     -0.520417844079
  31     -0.226619530096
  32      0.017776526405
  33      0.032908130208
  34      0.001939176322
  35     -0.000036380887
  36     -0.000107084357
  37     -0.000129522254
  38     -0.000059914011
  39      0.000020557382
  40     -0.000384616790
  41      0.000058694955
  42      0.000085453028
  43     -0.000315721289
  44      0.002491189285
  45      0.006533278507
  46      0.004760109058
  47      0.002266345270
  48      0.048694447370
  49      0.081555672137
  50      0.003478999299
  51     -0.001074391455
  52      0.012116159453
  53     -0.021685349844
  54      0.250996023042
  55      0.109447366318
  56      0.000440806979
  57     -0.002658038693
  58      0.002499328547
  59      0.010329046441
  60      0.010098539719
  61      0.000686120541
  62      0.056765004152
  63      0.092450450097
  64      0.007477250107
  65      0.008610271898
  66      0.056925145292
  67      0.059208585695
  68      0.242543653124
  69      0.097862423841
  70     -0.043345455979
  71     -0.048023239660
  72      0.192278181603
  73     -0.104979989341
  74     -0.036593751183
  75      0.043184415063
  76      0.048284468191
  77     -0.172549525537
  78      0.126298710381
  79      0.042017184634
  80      0.050387714406
  81      0.051695436347
  82     -0.152756318558
  83      0.127831862822
  84     -0.089574992515
  85     -0.049861295255
  86     -0.052641580485
  87      0.173959564186
  88     -0.100894885366
  89      0.091608973141
 Ene=   0.10679620746619E+01
 Spin= Alpha
 Occup=    0.000000
   1     -0.000002037624
   2     -0.000001019604
   3      0.000014838890
   4      0.000023866489
   5     -0.000016410815
   6     -0.000058968607
   7      0.000046064932
   8     -0.000092255270
   9      0.000037898044
  10      0.000023907375
  11     -0.000009024542
  12     -0.000049874808
  13     -0.000039126735
  14      0.000004105486
  15      0.000205678040
  16     -0.000095586955
  17      0.000041446137
  18      0.000156677439
  19      0.000203067336
  20     -0.000050897549
  21     -0.000782193975
  22     -0.000035614497
  23     -0.000226337986
  24     -0.000156959599
  25      0.000017816099
  26      0.000134074075
  27      0.000401424831
  28      0.001673289139
  29      0.000724591798
  30     -0.000227460821
  31     -0.000268391882
  32     -0.000241740268
  33      0.000036447771
  34      0.001376684207
  35      0.000003249848
  36     -0.000005741002
  37     -0.000000850092
  38     -0.000017035332
  39     -0.000003348313
  40      0.000003138737
  41     -0.000000004441
  42     -0.000010610121
  43      0.000677172307
  44     -0.005473314527
  45      0.000305083079
  46      0.000423127763
  47      0.000140494432
  48     -0.003045261635
  49     -0.005413957554
  50      0.001076435912
  51      0.000012660986
  52      0.000251172016
  53      0.000145543413
  54      0.000285694460
  55      0.000111578413
  56      0.000027122876
  57     -0.000739951842
  58      0.005506036587
  59     -0.000202560573
  60     -0.000512846322
  61      0.000055219619
  62      0.002519295790
  63      0.005546727755
  64      0.001785808316
  65      0.000024097253
  66      0.000037870531
  67      0.000180510901
  68     -0.000265331791
  69     -0.000214734240
  70      0.001842898337
  71      0.002143153567
  72      0.000334569649
  73     -0.000465769069
  74      0.000280210996
  75     -0.001021463434
  76     -0.001501881496
  77     -0.000388843209
  78      0.000015135555
  79     -0.000253952252
  80      0.001060559856
  81      0.001506112041
  82      0.000488363285
  83     -0.000054945475
  84     -0.000156547797
  85     -0.001819470081
  86     -0.002145785174
  87     -0.000303922532
  88      0.000410940106
  89      0.000171964222
 Ene=   0.10986136764221E+01
 Spin= Alpha
 Occup=    0.000000
   1      0.004055447744
   2      0.002090024957
   3     -0.036195660704
   4     -0.063191498793
   5      0.048242041768
   6      0.147436338705
   7     -0.151695002216
   8      0.546035122724
   9     -0.101374533553
  10     -0.044052706451
  11      0.028581214099
  12     -0.006830954614
  13      0.027799911344
  14     -0.016750850108
  15      0.004203270272
  16      0.200921052008
  17     -0.131337259297
  18      0.031283670577
  19     -0.279570702828
  20      0.179456737615
  21     -0.043304398302
  22     -0.197323799452
  23      0.069416614336
  24     -0.036637579526
  25      0.090633438566
  26     -0.222394149535
  27      0.248499966189
  28     -0.086229572005
  29      0.043188837383
  30     -0.106870774128
  31      0.259415223292
  32      0.332573944473
  33     -0.219730436478
  34      0.051398525453
  35      0.000320586155
  36      0.000845786087
  37     -0.000554241297
  38     -0.000159725867
  39      0.000359848558
  40      0.000264876114
  41      0.001235267847
  42     -0.031591495555
  43      0.226085369986
  44     -0.410253158648
  45     -0.172958172828
  46      0.116009200337
  47     -0.059143673328
  48      0.250912998486
  49     -0.171400158312
  50      0.092059624680
  51     -0.032497706574
  52     -0.204343279420
  53      0.145081631449
  54     -0.018527806873
  55      0.081042924524
  56     -0.030783465322
  57      0.222243369020
  58     -0.414685608381
  59     -0.182074291452
  60      0.118024627281
  61      0.005461526986
  62      0.267602420523
  63     -0.171988556308
  64     -0.011037159973
  65      0.071276142375
  66      0.177827136720
  67     -0.115366377208
  68     -0.071365648857
  69      0.124309675101
  70      0.002128988794
  71      0.051098021114
  72     -0.082370878852
  73      0.072911410923
  74     -0.045010881649
  75      0.000609094295
  76      0.052566160784
  77     -0.092088087940
  78      0.048154334995
  79     -0.045549455048
  80      0.004355184486
  81      0.053515130254
  82     -0.100954204545
  83      0.052169729383
  84      0.017223164323
  85      0.003749532449
  86      0.051259562790
  87     -0.091874375704
  88      0.071557487830
  89      0.018507649388
 Ene=   0.11135022060542E+01
 Spin= Alpha
 Occup=    0.000000
   1      0.000000012319
   2      0.000000002810
   3      0.000000241733
   4      0.000000676440
   5     -0.000000677467
   6     -0.000001184405
   7      0.000002889727
   8     -0.000044796652
   9      0.000006082856
  10     -0.000106387144
  11     -0.000013031146
  12      0.000634397347
  13      0.000260828687
  14      0.000022974395
  15     -0.001580900427
  16      0.000342365082
  17      0.000045616351
  18     -0.002037162076
  19     -0.000970938334
  20     -0.000099133685
  21      0.005862951693
  22     -0.000308101781
  23     -0.001115481635
  24      0.000430665198
  25      0.000102388684
  26     -0.000093842720
  27      0.001052151089
  28      0.003812636714
  29     -0.001595828004
  30     -0.000513758740
  31      0.000300105506
  32      0.000027669783
  33      0.000074572045
  34     -0.000117787730
  35     -0.000000856560
  36     -0.000002068072
  37      0.000000888801
  38     -0.000007917052
  39      0.000001737038
  40      0.000002235529
  41     -0.000000624519
  42     -0.000216887755
  43      0.003885305221
  44     -0.025813540689
  45     -0.000016400742
  46      0.000236288168
  47      0.000131653322
  48     -0.001609201196
  49     -0.002296932957
  50      0.006993949723
  51     -0.000132582888
  52      0.000467170859
  53     -0.000166058098
  54      0.000031789232
  55     -0.000093137416
  56      0.000219229852
  57     -0.003917370473
  58      0.025888083563
  59     -0.000045301719
  60     -0.000268631461
  61      0.000136458005
  62     -0.000440364919
  63      0.002539503420
  64      0.007096466193
  65      0.000330544156
  66      0.000266042616
  67     -0.000152251494
  68     -0.000288659132
  69      0.000081594818
  70      0.002101296209
  71      0.002968514501
  72      0.000479073633
  73     -0.000494650864
  74      0.000486835840
  75      0.001029112071
  76      0.001595042995
  77      0.000349972673
  78     -0.000342721504
  79      0.000241084622
  80     -0.001050006264
  81     -0.001554525880
  82     -0.000258219695
  83      0.000268588812
  84      0.000170347479
  85     -0.002096943692
  86     -0.003022367976
  87     -0.000724825141
  88      0.000595934971
  89      0.000275661180
 Ene=   0.11826338538300E+01
 Spin= Alpha
 Occup=    0.000000
   1     -0.001870251222
   2     -0.000897101805
   3      0.009431036716
   4      0.011862645620
   5     -0.005232257656
   6     -0.034337489986
   7      0.002488150589
   8      0.225620149306
   9     -0.015845966881
  10      0.008768283402
  11     -0.006387183666
  12      0.001339831261
  13     -0.005449187158
  14      0.004400606214
  15     -0.000853237460
  16     -0.039546317184
  17      0.028363801263
  18     -0.006050874436
  19      0.050785067305
  20     -0.037503665960
  21      0.007847472860
  22     -0.354750178130
  23      0.074986202203
  24      0.017840317455
  25     -0.090867213151
  26      0.199471504909
  27      0.520337100506
  28     -0.107906761854
  29     -0.029392421989
  30      0.142511335941
  31     -0.319083568942
  32      0.118947386148
  33     -0.079390374154
  34      0.018641534161
  35     -0.000292869859
  36     -0.000740968454
  37      0.000518375909
  38      0.000155445976
  39     -0.000180506690
  40     -0.000031982382
  41     -0.000213269162
  42     -0.013055069744
  43      0.169627915985
  44     -0.439426700012
  45      0.003208826954
  46     -0.002760174323
  47      0.007786820130
  48      0.062079388965
  49     -0.037980027585
  50     -0.059859427297
  51     -0.040544510665
  52      0.015064349283
  53     -0.006807858346
  54      0.012026686485
  55     -0.034565180584
  56     -0.013026334571
  57      0.169272647834
  58     -0.431656223129
  59      0.005318294002
  60     -0.004197822540
  61     -0.006434598364
  62      0.044684056146
  63     -0.030547919524
  64      0.081380691688
  65     -0.041033664882
  66      0.010683014765
  67     -0.004792549654
  68      0.012114709170
  69     -0.035277052901
  70      0.056993497271
  71      0.106087430932
  72      0.046636575956
  73      0.001387831730
  74     -0.021367893916
  75      0.056117446193
  76      0.105646489364
  77      0.021970214190
  78     -0.042294990993
  79     -0.025488606145
  80      0.057368002856
  81      0.107583742237
  82      0.014848771024
  83     -0.041832321453
  84      0.031251701734
  85      0.055892849894
  86      0.104169186734
  87      0.037758686684
  88      0.003360067845
  89      0.033991523262
 Ene=   0.12428601460456E+01
 Spin= Alpha
 Occup=    0.000000
   1     -0.000004811373
   2     -0.000002299517
   3      0.000023346098
   4      0.000028270790
   5     -0.000011285288
   6     -0.000083841609
   7     -0.000002716510
   8      0.000681020555
   9     -0.000060942979
  10      0.000041841674
  11      0.000011075400
  12      0.000011425877
  13     -0.000031096208
  14     -0.000009467440
  15     -0.000014520951
  16     -0.000179977548
  17     -0.000035343155
  18     -0.000046017363
  19      0.000241976888
  20      0.000037320932
  21      0.000081377017
  22     -0.001223518338
  23     -0.000057933278
  24     -0.000392832447
  25     -0.000333048499
  26      0.000625533988
  27      0.001657392946
  28      0.000122085894
  29      0.000554513573
  30      0.000648922787
  31     -0.000861282052
  32      0.000392699616
  33     -0.000155582230
  34      0.000040281619
  35     -0.000000846042
  36     -0.000001714599
  37      0.000001612569
  38      0.000001683945
  39      0.000000220404
  40     -0.000002595491
  41     -0.000000006741
  42     -0.000045257502
  43      0.000551778282
  44     -0.001324598710
  45     -0.000095755214
  46     -0.000113526276
  47     -0.000001734045
  48      0.001486935943
  49      0.001884017159
  50      0.000033763910
  51     -0.000178815232
  52     -0.000078227857
  53     -0.000268406423
  54      0.001155052583
  55      0.000395826199
  56     -0.000040283101
  57      0.000507400466
  58     -0.001197217170
  59      0.000125503599
  60      0.000216299378
  61      0.000011170775
  62     -0.001353503799
  63     -0.002417174100
  64      0.000014711830
  65     -0.000176022837
  66     -0.000219877303
  67     -0.000421965107
  68     -0.000651711516
  69     -0.000360640536
  70     -0.000360451982
  71     -0.000460580289
  72      0.001747536330
  73     -0.000835571893
  74     -0.000574858726
  75      0.000687168979
  76      0.001076303816
  77     -0.001396300887
  78      0.000913598833
  79      0.000454058286
  80     -0.000437553924
  81     -0.000649530079
  82      0.000799051878
  83     -0.000972929607
  84      0.000947229112
  85      0.000755701002
  86      0.001228970127
  87     -0.000910324954
  88      0.000498360897
  89     -0.000753703420
 Ene=   0.12433733816464E+01
 Spin= Alpha
 Occup=    0.000000
   1      0.000006817032
   2      0.000003437359
   3     -0.000052322054
   4     -0.000085457571
   5      0.000060807580
   6      0.000203645773
   7     -0.000121497042
   8     -0.000816399839
   9      0.000067925220
  10     -0.000255694377
  11     -0.000193508352
  12      0.000151186980
  13      0.000166873057
  14      0.000133330868
  15     -0.000099248650
  16      0.001154379104
  17      0.000821802381
  18     -0.000648090028
  19     -0.001582566197
  20     -0.001084538472
  21      0.000840817554
  22     -0.010026535864
  23     -0.043714962777
  24     -0.066920220337
  25      0.009205360552
  26      0.009148141445
  27      0.012737232623
  28      0.054962751923
  29      0.083720530377
  30     -0.011981408667
  31     -0.011335082477
  32     -0.000436085867
  33      0.000322857999
  34      0.000023595750
  35      0.000021530660
  36      0.000148101327
  37      0.000079319169
  38      0.000638166339
  39      0.000267790803
  40     -0.000122275833
  41     -0.000031956908
  42     -0.000477434123
  43      0.003202914467
  44     -0.003334302521
  45     -0.029422019079
  46     -0.043963402847
  47     -0.002340031168
  48      0.348627047081
  49      0.534444825136
  50      0.041266920974
  51     -0.007682401188
  52     -0.022912855543
  53     -0.061041105987
  54      0.197915722115
  55      0.091497500703
  56      0.000132568702
  57     -0.001893742820
  58      0.003774274186
  59      0.026060333231
  60      0.040514603118
  61      0.002860307663
  62     -0.348051100314
  63     -0.533005033725
  64     -0.043452385783
  65     -0.013802257699
  66     -0.075590359239
  67     -0.093255119683
  68     -0.180422409812
  69     -0.069108791565
  70     -0.139253108128
  71     -0.208504946738
  72      0.302283560560
  73     -0.133175307992
  74     -0.121224473558
  75      0.138815936893
  76      0.210235250669
  77     -0.251270149465
  78      0.206714340606
  79      0.131677076938
  80     -0.139327470482
  81     -0.211100035505
  82      0.205787466349
  83     -0.206545941750
  84      0.197334478159
  85      0.137853501998
  86      0.209826935668
  87     -0.258100563093
  88      0.129827658683
  89     -0.203165954174
 Ene=   0.12553620427758E+01
 Spin= Alpha
 Occup=    0.000000
   1     -0.000000480488
   2     -0.000000236659
   3      0.000003170338
   4      0.000004835650
   5     -0.000003096732
   6     -0.000012695227
   7      0.000007558293
   8      0.000041305760
   9     -0.000006914132
  10     -0.000037403311
  11     -0.000028514143
  12      0.000159197644
  13      0.000089399268
  14      0.000024871200
  15     -0.000527623851
  16      0.000134698797
  17      0.000117075303
  18     -0.000522629880
  19     -0.000398369391
  20     -0.000167636311
  21      0.002147840843
  22      0.002022590363
  23      0.009205806283
  24      0.011654080732
  25     -0.001418415258
  26     -0.001472798379
  27     -0.003918280268
  28     -0.017382113049
  29     -0.019451580711
  30      0.002652112043
  31      0.002429546931
  32      0.000597600678
  33     -0.000039715504
  34     -0.003924953177
  35     -0.000007643763
  36      0.000038351258
  37      0.000014876496
  38      0.000149390055
  39      0.000048448681
  40     -0.000027281097
  41     -0.000006466486
  42      0.000023918220
  43     -0.002075728427
  44      0.016570356472
  45     -0.002525526800
  46     -0.004049921598
  47     -0.000724364589
  48      0.026717275907
  49      0.042871581966
  50     -0.000929459659
  51     -0.000342672175
  52     -0.002076026957
  53     -0.003050191458
  54      0.002503415835
  55      0.001422204018
  56     -0.000027574611
  57      0.002129989019
  58     -0.016779144389
  59      0.002581520948
  60      0.003934228555
  61     -0.000108377562
  62     -0.025420736081
  63     -0.042848013024
  64     -0.007247021740
  65     -0.000717370986
  66     -0.002602355835
  67     -0.003457034887
  68     -0.001854083747
  69     -0.000624247967
  70     -0.011883916390
  71     -0.016788575293
  72      0.005159995394
  73      0.003055445124
  74     -0.006796738132
  75      0.009437283533
  76      0.014634820102
  77     -0.000562156367
  78      0.005686037774
  79      0.007078957862
  80     -0.009403125435
  81     -0.014469074954
  82     -0.001136023548
  83     -0.005624469319
  84      0.007049479420
  85      0.011920058307
  86      0.016748487970
  87     -0.003276603384
  88     -0.002980413599
  89     -0.007870348191
 Ene=   0.12887832078064E+01
 Spin= Alpha
 Occup=    0.000000
   1      0.000002987647
   2      0.000001641926
   3     -0.000037893492
   4     -0.000074361856
   5      0.000061751982
   6      0.000173013346
   7     -0.000210086608
   8      0.000620858217
   9     -0.000116348446
  10     -0.000008161593
  11      0.000109724141
  12      0.000307329284
  13      0.000004586377
  14     -0.000074026042
  15     -0.000240533873
  16      0.000025330594
  17     -0.000482609303
  18     -0.001253529265
  19     -0.000001086870
  20      0.000671438911
  21      0.001613407190
  22     -0.040357548361
  23     -0.178760371832
  24     -0.273549306552
  25      0.029883542323
  26      0.037341692221
  27      0.063688064536
  28      0.283441550718
  29      0.430168640233
  30     -0.047610808092
  31     -0.058772488055
  32     -0.000370930016
  33     -0.000537272929
  34      0.003065376937
  35     -0.000078649810
  36     -0.000512652252
  37     -0.000282274343
  38     -0.002291907919
  39     -0.000958417167
  40      0.000437417007
  41      0.000136106519
  42     -0.000270286331
  43      0.004810556891
  44     -0.026093862312
  45      0.035015135242
  46      0.054186402123
  47      0.005282401698
  48     -0.347000022757
  49     -0.530982202666
  50     -0.036877507833
  51      0.005351995348
  52      0.026921710733
  53      0.039339266454
  54      0.008959186284
  55      0.000103871235
  56      0.000048145950
  57     -0.003139985255
  58      0.024823450579
  59     -0.035674820614
  60     -0.054228104320
  61     -0.003785602584
  62      0.345692087009
  63      0.531097972876
  64      0.048937555565
  65      0.005481684399
  66      0.023223022574
  67      0.036533895876
  68     -0.016824419952
  69     -0.009961971472
  70      0.131841470283
  71      0.198577247263
  72     -0.017468013072
  73     -0.096680503520
  74      0.090767050921
  75     -0.128561233342
  76     -0.194355456578
  77     -0.072399580617
  78     -0.046214842353
  79     -0.100735175132
  80      0.128914641792
  81      0.193760090740
  82      0.096372741030
  83      0.042809313260
  84     -0.077430759365
  85     -0.132783029295
  86     -0.197670468356
  87     -0.007460770857
  88      0.097467757076
  89      0.089782945243
 Ene=   0.13060935634355E+01
 Spin= Alpha
 Occup=    0.000000
   1     -0.000016916574
   2     -0.000008129980
   3      0.000086881066
   4      0.000110281860
   5     -0.000050777148
   6     -0.000312815665
   7      0.000021836084
   8      0.002460967532
   9     -0.000238579729
  10      0.000844804007
  11      0.001082918180
  12      0.000105281484
  13     -0.000576888355
  14     -0.000786217989
  15     -0.000064477019
  16     -0.003645357167
  17     -0.004543753367
  18     -0.000461569190
  19      0.004861686345
  20      0.006063535801
  21      0.000597841675
  22     -0.005177627465
  23     -0.000630495303
  24     -0.000876398581
  25     -0.012040577311
  26     -0.001968685576
  27      0.006576087399
  28      0.001460090891
  29      0.001481166473
  30      0.019713061200
  31      0.004101150764
  32      0.002236719508
  33      0.000759916468
  34      0.000308929185
  35     -0.000001972755
  36     -0.000005279395
  37      0.000010807886
  38     -0.000016739348
  39     -0.000003239368
  40     -0.000082504300
  41      0.000012503267
  42     -0.000202665790
  43      0.002265335005
  44     -0.004657659454
  45      0.001040215355
  46      0.001735002846
  47      0.000142038221
  48     -0.002880312179
  49     -0.005687260817
  50     -0.000784201254
  51     -0.000741971722
  52      0.000227802089
  53     -0.000086910420
  54      0.003982686555
  55      0.001138014112
  56     -0.000184980963
  57      0.002167945699
  58     -0.004787190208
  59      0.001071570874
  60      0.001778976934
  61      0.000160547996
  62     -0.002506492231
  63     -0.005097878992
  64      0.000076413171
  65     -0.000480346332
  66      0.001261656955
  67      0.000558204077
  68      0.003698697336
  69      0.001001401727
  70      0.001593845755
  71      0.004142178577
  72      0.005953206124
  73     -0.007010779048
  74      0.001985328447
  75     -0.000551633924
  76     -0.001895309930
  77     -0.008148253185
  78      0.001546742065
  79     -0.003129755577
  80     -0.000342672519
  81     -0.001625875564
  82     -0.008475986271
  83      0.001734380664
  84      0.000688669851
  85      0.001452270729
  86      0.003886540479
  87      0.006099265896
  88     -0.006762984598
  89      0.000042369725
 Ene=   0.13236640976094E+01
 Spin= Alpha
 Occup=    0.000000
   1     -0.000021824663
   2     -0.000011971601
   3      0.000273193910
   4      0.000525940726
   5     -0.000442967382
   6     -0.001155031719
   7      0.001590958638
   8     -0.008287981603
   9      0.001848441568
  10      0.018308175387
  11      0.028171606695
  12      0.002767581438
  13     -0.012242046734
  14     -0.020639337122
  15     -0.001947764032
  16     -0.079064725402
  17     -0.120127741665
  18     -0.011940680150
  19      0.105337500036
  20      0.164418957761
  21      0.016246985545
  22     -0.007466617779
  23     -0.041266670144
  24     -0.019125956787
  25     -0.286444264540
  26     -0.119680142189
  27      0.012218038229
  28      0.064711560407
  29      0.030117421405
  30      0.449221357694
  31      0.190941476654