[Molden Format]
[Title]
generated by TRESC, real part1 of MOs of job Ni0-C2H4
 
[Atoms] AU
Ni   1  28    1.8539796126    6.7825327278   -0.4903308426
 C   2   6    4.6704257640    4.7931727241    1.2726747479
 C   3   6    5.0465532453    4.7581863879   -1.3126919263
 H   4   1    5.6975577332    6.1191094603    2.4870942128
 H   5   1    3.7846974132    3.1964352679    2.2493349313
 H   6   1    4.4712691419    3.1312517299   -2.4574086438
 H   7   1    6.3839198639    6.0535352724   -2.2192553710
[GTO]
  1 0
 s  6 1.0
    71074.8032110000        0.0049184150
    10672.0209410000        0.0200173975
     2428.1389007000        0.0784715325
      685.5359514800        0.2482002663
      223.1007286300        0.4665280195
       76.8420140400        0.3374151926
 s  1 1.0
      148.7112201600        1.0000000000
 s  1 1.0
       17.4591549900        1.0000000000
 s  1 1.0
        7.1625280700        1.0000000000
 s  1 1.0
       12.5561371300        1.0000000000
 s  1 1.0
        2.0735740500        1.0000000000
 s  1 1.0
        0.8538264100        1.0000000000
 s  1 1.0
        0.1053676600        1.0000000000
 s  1 1.0
        0.0381340900        1.0000000000
 p  5 1.0
      916.7360866200        0.0107030171
      216.0613991300        0.0711467350
       68.3839148200        0.2646675976
       24.5938439500        0.5093159720
        9.1392960200        0.3283291628
 p  1 1.0
        4.7193371700        1.0000000000
 p  1 1.0
        1.8161849200        1.0000000000
 p  1 1.0
        0.6784075100        1.0000000000
 d  4 1.0
       47.0938321100        0.0346401353
       13.1464639700        0.1833736831
        4.4170548900        0.4455621030
        1.4771565100        0.5627236040
 d  1 1.0
        0.4373592200        1.0000000000
 p  1 1.0
        0.1465880000        1.0000000000
 f  1 1.0
        2.1740000000        1.0000000000
 
  2 0
 s  5 1.0
     1238.4016938000        0.0059599745
      186.2900499200        0.0422621111
       42.2511763500        0.1866575214
       11.6765579300        0.4675815865
        3.5930506500        0.4422897287
 s  1 1.0
        0.4024514700        1.0000000000
 s  1 1.0
        0.1309018300        1.0000000000
 p  3 1.0
        9.4680970600        0.0570294585
        2.0103545100        0.3130471495
        0.5477100500        0.7605135301
 p  1 1.0
        0.1526861400        1.0000000000
 d  1 1.0
        0.8000000000        1.0000000000
 
  3 0
 s  5 1.0
     1238.4016938000        0.0059599745
      186.2900499200        0.0422621111
       42.2511763500        0.1866575214
       11.6765579300        0.4675815865
        3.5930506500        0.4422897287
 s  1 1.0
        0.4024514700        1.0000000000
 s  1 1.0
        0.1309018300        1.0000000000
 p  3 1.0
        9.4680970600        0.0570294585
        2.0103545100        0.3130471495
        0.5477100500        0.7605135301
 p  1 1.0
        0.1526861400        1.0000000000
 d  1 1.0
        0.8000000000        1.0000000000
 
  4 0
 s  3 1.0
       13.0107010000        0.0391282527
        1.9622572000        0.2855840539
        0.4445379600        0.7689908602
 s  1 1.0
        0.1219496200        1.0000000000
 p  1 1.0
        0.8000000000        1.0000000000
 
  5 0
 s  3 1.0
       13.0107010000        0.0391282527
        1.9622572000        0.2855840539
        0.4445379600        0.7689908602
 s  1 1.0
        0.1219496200        1.0000000000
 p  1 1.0
        0.8000000000        1.0000000000
 
  6 0
 s  3 1.0
       13.0107010000        0.0391282527
        1.9622572000        0.2855840539
        0.4445379600        0.7689908602
 s  1 1.0
        0.1219496200        1.0000000000
 p  1 1.0
        0.8000000000        1.0000000000
 
  7 0
 s  3 1.0
       13.0107010000        0.0391282527
        1.9622572000        0.2855840539
        0.4445379600        0.7689908602
 s  1 1.0
        0.1219496200        1.0000000000
 p  1 1.0
        0.8000000000        1.0000000000
 
[5D]
[7F]
[9G]
[MO]
 Ene=  -0.30335055385707E+03
 Spin= Alpha
 Occup=    0.999999
   1     -0.767509496430
   2     -0.045472887232
   3     -0.036904495586
   4     -0.000848209922
   5      0.020297637699
   6     -0.000716577865
   7      0.000366664053
   8     -0.000127636128
   9      0.000044472524
  10      0.000001174898
  11     -0.000000766506
  12      0.000000191496
  13      0.000000519193
  14     -0.000000336395
  15      0.000000071804
  16     -0.000003196067
  17      0.000002122442
  18     -0.000000491276
  19      0.000006566647
  20     -0.000004381985
  21      0.000001023246
  22     -0.000000233647
  23      0.000000312852
  24     -0.000000439959
  25      0.000001325383
  26     -0.000003117672
  27      0.000002991397
  28     -0.000001570025
  29      0.000001494800
  30     -0.000004213826
  31      0.000010039179
  32     -0.000031624320
  33      0.000021128533
  34     -0.000004960706
  35     -0.000000017955
  36     -0.000000045804
  37      0.000000038282
  38      0.000000011187
  39      0.000000023723
  40      0.000000032589
  41      0.000000176025
  42     -0.000000148884
  43     -0.000006291521
  44      0.000042075531
  45     -0.000001769492
  46      0.000001287512
  47     -0.000001593004
  48     -0.000015092668
  49      0.000009858197
  50      0.000000165403
  51     -0.000001302830
  52      0.000001274285
  53     -0.000000818298
  54      0.000000703478
  55     -0.000001875895
  56     -0.000000153332
  57     -0.000006192736
  58      0.000041327838
  59     -0.000002162217
  60      0.000001334414
  61      0.000000977870
  62     -0.000014272654
  63      0.000009770568
  64     -0.000005119074
  65     -0.000001712668
  66     -0.000000176815
  67      0.000000178261
  68      0.000000904932
  69     -0.000002038755
  70     -0.000002413509
  71     -0.000009436134
  72      0.000000232391
  73      0.000000008044
  74     -0.000000663098
  75     -0.000002420116
  76     -0.000009459551
  77      0.000000139725
  78     -0.000000147978
  79     -0.000000668533
  80     -0.000002403779
  81     -0.000009414782
  82     -0.000000085452
  83     -0.000000126083
  84      0.000000702065
  85     -0.000002402631
  86     -0.000009410600
  87      0.000000021896
  88      0.000000049098
  89      0.000000718447
 Ene=  -0.30334951341857E+03
 Spin= Alpha
 Occup=    0.000001
   1      0.000677780152
   2      0.000040156035
   3      0.000032587445
   4      0.000000748080
   5     -0.000017920496
   6      0.000000632882
   7     -0.000000323846
   8      0.000000111824
   9     -0.000000039163
  10     -0.000000001096
  11     -0.000000000306
  12     -0.000000001503
  13     -0.000000002586
  14      0.000000000511
  15      0.000000004390
  16      0.000000004701
  17     -0.000000002044
  18      0.000000000410
  19     -0.000000006518
  20      0.000000003937
  21     -0.000000000317
  22      0.000000000117
  23      0.000000007594
  24      0.000000003209
  25     -0.000000000661
  26      0.000000002510
  27     -0.000000002788
  28     -0.000000002517
  29     -0.000000001800
  30      0.000000003583
  31     -0.000000008667
  32      0.000000027713
  33     -0.000000018359
  34      0.000000001270
  35      0.000000005990
  36     -0.000000003169
  37      0.000000001015
  38     -0.000000007286
  39      0.000000007113
  40      0.000000000788
  41     -0.000000000718
  42      0.000000000197
  43      0.000000003991
  44     -0.000000024328
  45      0.000000001533
  46     -0.000000001078
  47      0.000000000933
  48      0.000000012101
  49     -0.000000005816
  50     -0.000000004283
  51      0.000000000895
  52     -0.000000001428
  53      0.000000001101
  54     -0.000000000374
  55      0.000000001205
  56      0.000000000129
  57      0.000000006742
  58     -0.000000048294
  59      0.000000001970
  60     -0.000000001208
  61     -0.000000001349
  62      0.000000014548
  63     -0.000000010909
  64      0.000000001360
  65      0.000000001500
  66     -0.000000000396
  67      0.000000000328
  68     -0.000000000966
  69      0.000000001955
  70      0.000000001456
  71      0.000000006919
  72     -0.000000000111
  73     -0.000000000361
  74      0.000000000883
  75      0.000000002206
  76      0.000000008000
  77      0.000000000203
  78      0.000000000244
  79      0.000000000642
  80      0.000000002143
  81      0.000000008819
  82     -0.000000000197
  83      0.000000000036
  84     -0.000000000653
  85      0.000000002696
  86      0.000000009449
  87     -0.000000000153
  88      0.000000000237
  89     -0.000000000478
 Ene=  -0.36644462695018E+02
 Spin= Alpha
 Occup=    1.000000
   1      0.052507348452
   2      0.020788993075
   3     -0.114220130393
   4     -0.073327121871
   5      0.005636170048
   6     -0.003018325548
   7      0.000448427081
   8     -0.000128461865
   9      0.000040357077
  10     -0.000000705552
  11      0.000001575392
  12      0.000000215988
  13     -0.000007598708
  14      0.000005212172
  15     -0.000001144016
  16     -0.000000340887
  17      0.000000291085
  18     -0.000000084804
  19      0.000006107177
  20     -0.000004089860
  21      0.000000967754
  22      0.000027340761
  23     -0.000002281255
  24     -0.000006687152
  25      0.000023704918
  26     -0.000054726515
  27     -0.000004929470
  28     -0.000001020808
  29      0.000003592738
  30     -0.000011617353
  31      0.000027051495
  32     -0.000037618435
  33      0.000025111934
  34     -0.000005922217
  35     -0.000000034616
  36     -0.000000041917
  37      0.000000116191
  38      0.000000001073
  39      0.000000120988
  40      0.000000109799
  41      0.000000914287
  42     -0.000000259417
  43     -0.000007757018
  44      0.000049180786
  45     -0.000002386004
  46      0.000001720388
  47     -0.000002052853
  48     -0.000017752656
  49      0.000011788663
  50     -0.000000398109
  51     -0.000001500685
  52      0.000001865131
  53     -0.000001268677
  54      0.000001067930
  55     -0.000002886431
  56     -0.000000265108
  57     -0.000007620069
  58      0.000048138633
  59     -0.000002879610
  60      0.000001786520
  61      0.000001229336
  62     -0.000017024965
  63      0.000011524218
  64     -0.000005513175
  65     -0.000002144324
  66     -0.000000440261
  67      0.000000315250
  68      0.000001392925
  69     -0.000003145762
  70     -0.000002724156
  71     -0.000010333759
  72      0.000000443577
  73     -0.000000222953
  74     -0.000000598282
  75     -0.000002688041
  76     -0.000010265285
  77      0.000000426219
  78     -0.000000260367
  79     -0.000000604585
  80     -0.000002699289
  81     -0.000010271724
  82      0.000000204612
  83     -0.000000239637
  84      0.000000722886
  85     -0.000002666665
  86     -0.000010229111
  87      0.000000235271
  88     -0.000000173519
  89      0.000000733893
 Ene=  -0.36616063091397E+02
 Spin= Alpha
 Occup=    0.000000
   1     -0.000003826751
   2     -0.000001514390
   3      0.000008312815
   4      0.000005351939
   5     -0.000000405757
   6      0.000000217557
   7     -0.000000028242
   8      0.000000000630
   9     -0.000000003380
  10      0.000001308813
  11      0.000000022594
  12     -0.000009408334
  13     -0.000000173856
  14      0.000000002050
  15      0.000001300538
  16      0.000000117758
  17     -0.000000000720
  18     -0.000000889500
  19     -0.000000047729
  20     -0.000000000038
  21      0.000000364874
  22      0.000000008947
  23      0.000000228070
  24      0.000000166192
  25      0.000000021631
  26     -0.000000015212
  27     -0.000000003300
  28     -0.000000052349
  29     -0.000000051539
  30     -0.000000007110
  31      0.000000007185
  32      0.000000006691
  33      0.000000001482
  34     -0.000000083159
  35     -0.000000035438
  36      0.000000018453
  37     -0.000000005957
  38      0.000000039695
  39     -0.000000040605
  40     -0.000000004448
  41      0.000000002967
  42     -0.000000001571
  43      0.000000001517
  44     -0.000000065793
  45     -0.000000001546
  46     -0.000000002738
  47      0.000000002771
  48      0.000000015616
  49      0.000000043916
  50      0.000000034153
  51     -0.000000001128
  52      0.000000001951
  53     -0.000000000923
  54     -0.000000002122
  55     -0.000000001381
  56      0.000000000758
  57     -0.000000004131
  58      0.000000070141
  59     -0.000000000417
  60      0.000000003084
  61      0.000000003041
  62     -0.000000025057
  63     -0.000000034372
  64      0.000000033354
  65      0.000000001076
  66      0.000000000215
  67     -0.000000000543
  68      0.000000001237
  69     -0.000000001125
  70     -0.000000009984
  71     -0.000000005826
  72     -0.000000000594
  73      0.000000000019
  74     -0.000000001757
  75      0.000000008593
  76      0.000000028353
  77     -0.000000001558
  78      0.000000000971
  79     -0.000000004942
  80     -0.000000006533
  81     -0.000000022779
  82      0.000000002924
  83     -0.000000000260
  84     -0.000000003628
  85      0.000000008158
  86      0.000000003829
  87      0.000000001215
  88     -0.000000000896
  89     -0.000000002745
 Ene=  -0.32189469942261E+02
 Spin= Alpha
 Occup=    0.689444
   1     -0.000013929910
   2     -0.000007435203
   3      0.000158638077
   4      0.000135281161
   5     -0.000207617865
   6     -0.000163661439
   7      0.000173546012
   8     -0.000142634474
   9     -0.000395183465
  10     -0.584469058413
  11     -0.035999168503
  12     -0.014388993739
  13      0.009620841630
  14      0.000185774274
  15      0.000226766153
  16     -0.016329870315
  17     -0.000743472268
  18     -0.000409284657
  19      0.005937464173
  20      0.000142727754
  21      0.000164233811
  22     -0.000007369427
  23      0.000004727311
  24     -0.000003039927
  25      0.000009888032
  26     -0.000016090095
  27      0.000026787688
  28     -0.000012219484
  29      0.000008622982
  30     -0.000054967015
  31      0.000077634836
  32     -0.001690201115
  33      0.000201049504
  34     -0.000085504186
  35      0.000005798699
  36      0.000019660505
  37      0.000022084015
  38      0.000001287578
  39     -0.000004770174
  40      0.000037532083
  41     -0.000013338959
  42     -0.000005953601
  43      0.000137279279
  44      0.000170921810
  45     -0.000032225205
  46      0.000012449695
  47     -0.000028850269
  48     -0.000089047160
  49      0.000061793773
  50     -0.000052360467
  51     -0.000002714647
  52     -0.000033730457
  53      0.000010513573
  54     -0.000030335348
  55      0.000048461533
  56     -0.000004925763
  57      0.000149818515
  58     -0.000036551790
  59     -0.000035844388
  60      0.000011051078
  61      0.000017220597
  62     -0.000109453613
  63      0.000077893552
  64     -0.000099194989
  65      0.000012527671
  66      0.000030924588
  67     -0.000003775314
  68     -0.000041015373
  69      0.000054809836
  70     -0.000051244705
  71      0.000269212774
  72     -0.000049441089
  73      0.000027154538
  74     -0.000047173317
  75     -0.000037380593
  76      0.000084158159
  77     -0.000021248526
  78     -0.000010710805
  79     -0.000011437217
  80     -0.000041005182
  81      0.000116746622
  82     -0.000030387161
  83     -0.000007231590
  84      0.000014917424
  85     -0.000054479603
  86      0.000303009002
  87     -0.000067440921
  88      0.000032131112
  89      0.000040182069
 Ene=  -0.32177956573284E+02
 Spin= Alpha
 Occup=    0.339223
   1      0.000001479993
   2      0.000000875991
   3     -0.000022157873
   4     -0.000019397466
   5      0.000030688869
   6      0.000024487663
   7     -0.000025990233
   8      0.000022257997
   9      0.000058467530
  10     -0.013852858437
  11     -0.011369775682
  12      0.582569718285
  13      0.000225985096
  14      0.000215334699
  15     -0.009491149843
  16     -0.000369850051
  17     -0.000338348063
  18      0.016125609150
  19      0.000113274988
  20      0.000135818931
  21     -0.005751682385
  22      0.000002845533
  23      0.000005779231
  24     -0.000003812821
  25     -0.000002180542
  26      0.000003342495
  27      0.000005851246
  28      0.000037912027
  29     -0.000026226190
  30      0.000001627655
  31     -0.000008352154
  32      0.000018632682
  33     -0.000064931701
  34      0.001363044414
  35     -0.000002481411
  36     -0.000002121581
  37      0.000000953599
  38     -0.000004235596
  39      0.000010112158
  40     -0.000001596675
  41     -0.000000596507
  42     -0.000003196662
  43     -0.000063900274
  44      0.000775321723
  45     -0.000005557194
  46      0.000004496997
  47     -0.000002094793
  48      0.000199381796
  49     -0.000093466741
  50     -0.000438551085
  51      0.000021920120
  52      0.000044399013
  53     -0.000031963914
  54      0.000001490467
  55     -0.000011161331
  56      0.000004872144
  57      0.000021634873
  58     -0.000797862929
  59      0.000016499426
  60     -0.000009601167
  61     -0.000005840669
  62     -0.000033892326
  63      0.000059605625
  64     -0.000468014757
  65      0.000000078413
  66      0.000039558379
  67     -0.000026175490
  68     -0.000004722023
  69      0.000004998010
  70      0.000022085770
  71     -0.000167541460
  72      0.000019094960
  73     -0.000016426620
  74      0.000051971214
  75      0.000021608517
  76     -0.000154531483
  77      0.000017416141
  78     -0.000013464689
  79      0.000049566755
  80     -0.000008440699
  81      0.000109888269
  82     -0.000020509097
  83      0.000013266428
  84      0.000036830816
  85     -0.000007326737
  86      0.000098778826
  87     -0.000019333008
  88      0.000009139592
  89      0.000035142685
 Ene=  -0.31539603156809E+02
 Spin= Alpha
 Occup=    0.876772
   1      0.000010238454
   2      0.000005187616
   3     -0.000087241971
   4     -0.000040534503
   5      0.000085593778
   6      0.000061872383
   7     -0.000061138303
   8      0.000042055489
   9      0.000146303756
  10      0.024947993321
  11     -0.632535538597
  12     -0.047770045318
  13     -0.000265193719
  14     -0.003980171692
  15     -0.000310337483
  16      0.000622131125
  17     -0.010126551148
  18     -0.000753353719
  19     -0.000274323234
  20      0.003011128612
  21      0.000212574935
  22      0.000002090559
  23     -0.000002426910
  24      0.000001543776
  25     -0.000001226938
  26      0.000001897720
  27     -0.000008393635
  28      0.000001413772
  29     -0.000004329650
  30     -0.000000631276
  31     -0.000032521449
  32      0.000183522162
  33     -0.000735647994
  34     -0.000029013696
  35      0.000006577032
  36      0.000023378140
  37      0.000041499922
  38      0.000005259446
  39     -0.000009575319
  40      0.000063152647
  41     -0.000006381517
  42      0.000001864846
  43     -0.000050921539
  44     -0.000062817916
  45      0.000005520565
  46     -0.000011631667
  47      0.000009142081
  48      0.000028190569
  49     -0.000023004567
  50      0.000020852164
  51     -0.000001454509
  52      0.000005020733
  53     -0.000016107217
  54      0.000002146052
  55     -0.000023113544
  56      0.000001408274
  57     -0.000056366811
  58      0.000024929534
  59      0.000006205821
  60     -0.000010794795
  61     -0.000006532692
  62      0.000034668647
  63     -0.000030175378
  64      0.000038682542
  65     -0.000004776767
  66     -0.000006602689
  67      0.000011617151
  68      0.000004283060
  69     -0.000028911389
  70      0.000012205841
  71     -0.000001488996
  72     -0.000008929723
  73     -0.000008916051
  74     -0.000003457173
  75      0.000020058517
  76     -0.000127706567
  77      0.000018519744
  78     -0.000022163987
  79      0.000022229315
  80      0.000020988905
  81     -0.000142160169
  82      0.000027046447
  83     -0.000024195991
  84     -0.000019422061
  85      0.000013625216
  86     -0.000014495985
  87     -0.000006964800
  88     -0.000010448095
  89     -0.000002900472
 Ene=  -0.31529987762340E+02
 Spin= Alpha
 Occup=    0.656786
   1     -0.000002767148
   2     -0.000001451055
   3      0.000026641848
   4      0.000012118054
   5     -0.000027109006
   6     -0.000019732105
   7      0.000019538103
   8     -0.000013937743
   9     -0.000046322574
  10      0.013923212337
  11      0.064008708923
  12     -0.727624437203
  13      0.000107513890
  14      0.000375524986
  15     -0.004195247172
  16      0.000201923388
  17      0.001040800968
  18     -0.011783197942
  19     -0.000042001520
  20     -0.000319269818
  21      0.003501088934
  22     -0.000005442115
  23     -0.000017052503
  24      0.000011497511
  25      0.000002696873
  26     -0.000002668693
  27     -0.000001517352
  28     -0.000016126259
  29      0.000011526704
  30     -0.000001353058
  31      0.000007206951
  32     -0.000026015975
  33      0.000095122101
  34     -0.000794862805
  35      0.000003076941
  36      0.000001107601
  37     -0.000004436026
  38      0.000005539955
  39     -0.000012841396
  40     -0.000002717716
  41      0.000000893533
  42      0.000002038104
  43      0.000044696593
  44     -0.000476749208
  45      0.000005130470
  46     -0.000003299898
  47      0.000001355429
  48     -0.000113313444
  49      0.000051954729
  50      0.000263203890
  51     -0.000010792109
  52     -0.000028327946
  53      0.000021186308
  54     -0.000001966118
  55      0.000011005638
  56     -0.000003146551
  57     -0.000010731009
  58      0.000490053915
  59     -0.000011982320
  60      0.000007672857
  61      0.000003869432
  62      0.000010543660
  63     -0.000028818050
  64      0.000276932380
  65     -0.000001581571
  66     -0.000022744545
  67      0.000014638786
  68      0.000003174052
  69     -0.000002278656
  70     -0.000012650923
  71      0.000100618737
  72     -0.000011091055
  73      0.000011270600
  74     -0.000030438376
  75     -0.000013094614
  76      0.000102566368
  77     -0.000012698583
  78      0.000009773094
  79     -0.000031026035
  80      0.000002123571
  81     -0.000054982845
  82      0.000010802730
  83     -0.000006151347
  84     -0.000020087088
  85      0.000002121271
  86     -0.000058225933
  87      0.000012404092
  88     -0.000005234174
  89     -0.000020376783
 Ene=  -0.31523638285278E+02
 Spin= Alpha
 Occup=    0.432077
   1      0.000013911241
   2      0.000006961586
   3     -0.000114703586
   4     -0.000051502790
   5      0.000110235619
   6      0.000079068471
   7     -0.000078022141
   8      0.000053061711
   9      0.000186934969
  10      0.428907304941
  11     -0.223353044956
  12     -0.001037403524
  13      0.002526463513
  14     -0.001257142777
  15     -0.000013430142
  16      0.006961707553
  17     -0.003655460608
  18     -0.000006310105
  19     -0.002122795610
  20      0.001134095583
  21     -0.000008438374
  22      0.000002572562
  23     -0.000002719200
  24      0.000001640258
  25     -0.000000466656
  26      0.000002202546
  27     -0.000010276167
  28      0.000004390267
  29     -0.000004349885
  30      0.000015634032
  31     -0.000034187611
  32      0.000616981420
  33     -0.000350444637
  34      0.000024055722
  35     -0.000001768348
  36     -0.000006111411
  37     -0.000000929029
  38      0.000000856353
  39      0.000000267351
  40     -0.000004374126
  41      0.000009027370
  42      0.000002394317
  43     -0.000065731707
  44     -0.000071185193
  45      0.000011546273
  46     -0.000007924346
  47      0.000012190247
  48      0.000039448421
  49     -0.000027017651
  50      0.000022337437
  51     -0.000000215291
  52      0.000014282877
  53     -0.000010671548
  54      0.000011009839
  55     -0.000026965836
  56      0.000001894103
  57     -0.000071768742
  58      0.000024209467
  59      0.000012685838
  60     -0.000007035211
  61     -0.000007789748
  62      0.000046351474
  63     -0.000033627171
  64      0.000044842292
  65     -0.000007311913
  66     -0.000012867645
  67      0.000005738396
  68      0.000015634802
  69     -0.000031634789
  70      0.000020896128
  71     -0.000089837872
  72      0.000012697547
  73     -0.000012788268
  74      0.000014324616
  75      0.000020380485
  76     -0.000078036758
  77      0.000014419962
  78     -0.000005034592
  79      0.000012422363
  80      0.000021596731
  81     -0.000092926735
  82      0.000020528966
  83     -0.000006815680
  84     -0.000011904590
  85      0.000022185361
  86     -0.000104528768
  87      0.000019163791
  88     -0.000014952651
  89     -0.000013999267
 Ene=  -0.31508999337677E+02
 Spin= Alpha
 Occup=    0.005698
   1      0.000000103463
   2      0.000000050904
   3     -0.000000833920
   4     -0.000000359027
   5      0.000000788326
   6      0.000000560531
   7     -0.000000550583
   8      0.000000372008
   9      0.000001309996
  10      0.000996039959
  11     -0.003723899847
  12      0.004427074094
  13      0.000004564598
  14     -0.000026101946
  15      0.000028472168
  16      0.000016913688
  17     -0.000058309038
  18      0.000070189513
  19     -0.000005574170
  20      0.000017153173
  21     -0.000020691441
  22      0.000000049607
  23      0.000000101764
  24     -0.000000057754
  25     -0.000000021595
  26      0.000000022736
  27     -0.000000048847
  28      0.000000112747
  29     -0.000000095588
  30      0.000000037671
  31     -0.000000253760
  32      0.000002282422
  33     -0.000004434957
  34      0.000004812693
  35      0.000000009296
  36      0.000000116498
  37      0.000000261041
  38      0.000000375404
  39      0.000000183394
  40      0.000000261688
  41      0.000000067965
  42     -0.000000000314
  43     -0.000000638267
  44      0.000002521152
  45      0.000000017300
  46     -0.000000047210
  47      0.000000057114
  48      0.000000877821
  49     -0.000000502679
  50     -0.000001485719
  51      0.000000058514
  52      0.000000228336
  53     -0.000000223876
  54      0.000000067135
  55     -0.000000216868
  56      0.000000031733
  57     -0.000000328548
  58     -0.000002856023
  59      0.000000130236
  60     -0.000000108351
  61     -0.000000067908
  62      0.000000200470
  63      0.000000004927
  64     -0.000001438892
  65     -0.000000025928
  66      0.000000079858
  67     -0.000000031478
  68      0.000000014391
  69     -0.000000183351
  70      0.000000181391
  71     -0.000000807785
  72      0.000000060516
  73     -0.000000135339
  74      0.000000197954
  75      0.000000201299
  76     -0.000001351911
  77      0.000000187110
  78     -0.000000162312
  79      0.000000317133
  80      0.000000127997
  81     -0.000000448344
  82      0.000000091616
  83     -0.000000080863
  84      0.000000021399
  85      0.000000086888
  86      0.000000054897
  87     -0.000000065190
  88     -0.000000045123
  89      0.000000075883
 Ene=  -0.10268604312611E+02
 Spin= Alpha
 Occup=    0.000001
   1      0.000000000190
   2      0.000000000372
   3     -0.000000033600
   4     -0.000000079624
   5      0.000000077036
   6      0.000000136584
   7     -0.000000073006
   8     -0.000006970714
   9      0.000001005655
  10      0.000000014038
  11     -0.000000002912
  12     -0.000000023131
  13      0.000000086781
  14     -0.000000021318
  15     -0.000000068020
  16     -0.000000028091
  17      0.000000024368
  18     -0.000000138907
  19     -0.000000235058
  20      0.000000153120
  21      0.000000068584
  22      0.000000078209
  23      0.000000003340
  24     -0.000000007775
  25     -0.000000060791
  26      0.000000131401
  27     -0.000000160361
  28     -0.000000232122
  29      0.000000159296
  30      0.000000089425
  31     -0.000000153662
  32     -0.000002847329
  33      0.000002090826
  34     -0.000002750806
  35     -0.000000012237
  36      0.000000005214
  37     -0.000000005875
  38      0.000000004470
  39     -0.000000023312
  40     -0.000000007281
  41     -0.000000026154
  42     -0.000879616235
  43     -0.000049580690
  44      0.000048053307
  45      0.000000050563
  46     -0.000000045299
  47     -0.000000369863
  48     -0.000001972971
  49      0.000001850634
  50     -0.000005861167
  51     -0.000001222292
  52      0.000000136015
  53     -0.000000130867
  54      0.000000932084
  55     -0.000002151948
  56      0.000020596745
  57      0.000003885608
  58     -0.000014996148
  59      0.000000086529
  60     -0.000000191812
  61      0.000002521306
  62     -0.000000608444
  63      0.000000764129
  64     -0.000005434018
  65      0.000001718447
  66     -0.000000568228
  67      0.000000074160
  68     -0.000000088768
  69      0.000000313489
  70      0.000003494423
  71     -0.000008292276
  72     -0.000001472270
  73     -0.000002399434
  74     -0.000001506827
  75      0.000003493264
  76     -0.000008232622
  77      0.000001718334
  78      0.000002488883
  79     -0.000001008925
  80     -0.000000297501
  81      0.000000240033
  82      0.000000064847
  83     -0.000000381131
  84     -0.000000416817
  85     -0.000000337854
  86      0.000000300585
  87      0.000000433497
  88      0.000000155633
  89     -0.000000444165
 Ene=  -0.10268539991606E+02
 Spin= Alpha
 Occup=    0.999999
   1     -0.000000981516
   2     -0.000000780259
   3      0.000046198592
   4      0.000104981434
   5     -0.000100458032
   6     -0.000183896487
   7      0.000098904678
   8      0.009201643675
   9     -0.001335386884
  10      0.000011394312
  11     -0.000007891657
  12      0.000004535141
  13     -0.000050799464
  14      0.000035548141
  15     -0.000027564993
  16      0.000038645657
  17     -0.000030240172
  18      0.000054812775
  19      0.000304745104
  20     -0.000199276977
  21      0.000004762028
  22     -0.000079499232
  23      0.000040581767
  24     -0.000029844586
  25      0.000067562801
  26     -0.000163378607
  27      0.000130552751
  28      0.000024073540
  29     -0.000018988452
  30     -0.000076727017
  31      0.000170052622