[Molden Format]
[Title]
generated by TRESC, imaginary part2 of MOs of job Ni0-C2H4
 
[Atoms] AU
Ni   1  28    1.8539796126    6.7825327278   -0.4903308426
 C   2   6    4.6704257640    4.7931727241    1.2726747479
 C   3   6    5.0465532453    4.7581863879   -1.3126919263
 H   4   1    5.6975577332    6.1191094603    2.4870942128
 H   5   1    3.7846974132    3.1964352679    2.2493349313
 H   6   1    4.4712691419    3.1312517299   -2.4574086438
 H   7   1    6.3839198639    6.0535352724   -2.2192553710
[GTO]
  1 0
 s  6 1.0
    71074.8032110000        0.0049184150
    10672.0209410000        0.0200173975
     2428.1389007000        0.0784715325
      685.5359514800        0.2482002663
      223.1007286300        0.4665280195
       76.8420140400        0.3374151926
 s  1 1.0
      148.7112201600        1.0000000000
 s  1 1.0
       17.4591549900        1.0000000000
 s  1 1.0
        7.1625280700        1.0000000000
 s  1 1.0
       12.5561371300        1.0000000000
 s  1 1.0
        2.0735740500        1.0000000000
 s  1 1.0
        0.8538264100        1.0000000000
 s  1 1.0
        0.1053676600        1.0000000000
 s  1 1.0
        0.0381340900        1.0000000000
 p  5 1.0
      916.7360866200        0.0107030171
      216.0613991300        0.0711467350
       68.3839148200        0.2646675976
       24.5938439500        0.5093159720
        9.1392960200        0.3283291628
 p  1 1.0
        4.7193371700        1.0000000000
 p  1 1.0
        1.8161849200        1.0000000000
 p  1 1.0
        0.6784075100        1.0000000000
 d  4 1.0
       47.0938321100        0.0346401353
       13.1464639700        0.1833736831
        4.4170548900        0.4455621030
        1.4771565100        0.5627236040
 d  1 1.0
        0.4373592200        1.0000000000
 p  1 1.0
        0.1465880000        1.0000000000
 f  1 1.0
        2.1740000000        1.0000000000
 
  2 0
 s  5 1.0
     1238.4016938000        0.0059599745
      186.2900499200        0.0422621111
       42.2511763500        0.1866575214
       11.6765579300        0.4675815865
        3.5930506500        0.4422897287
 s  1 1.0
        0.4024514700        1.0000000000
 s  1 1.0
        0.1309018300        1.0000000000
 p  3 1.0
        9.4680970600        0.0570294585
        2.0103545100        0.3130471495
        0.5477100500        0.7605135301
 p  1 1.0
        0.1526861400        1.0000000000
 d  1 1.0
        0.8000000000        1.0000000000
 
  3 0
 s  5 1.0
     1238.4016938000        0.0059599745
      186.2900499200        0.0422621111
       42.2511763500        0.1866575214
       11.6765579300        0.4675815865
        3.5930506500        0.4422897287
 s  1 1.0
        0.4024514700        1.0000000000
 s  1 1.0
        0.1309018300        1.0000000000
 p  3 1.0
        9.4680970600        0.0570294585
        2.0103545100        0.3130471495
        0.5477100500        0.7605135301
 p  1 1.0
        0.1526861400        1.0000000000
 d  1 1.0
        0.8000000000        1.0000000000
 
  4 0
 s  3 1.0
       13.0107010000        0.0391282527
        1.9622572000        0.2855840539
        0.4445379600        0.7689908602
 s  1 1.0
        0.1219496200        1.0000000000
 p  1 1.0
        0.8000000000        1.0000000000
 
  5 0
 s  3 1.0
       13.0107010000        0.0391282527
        1.9622572000        0.2855840539
        0.4445379600        0.7689908602
 s  1 1.0
        0.1219496200        1.0000000000
 p  1 1.0
        0.8000000000        1.0000000000
 
  6 0
 s  3 1.0
       13.0107010000        0.0391282527
        1.9622572000        0.2855840539
        0.4445379600        0.7689908602
 s  1 1.0
        0.1219496200        1.0000000000
 p  1 1.0
        0.8000000000        1.0000000000
 
  7 0
 s  3 1.0
       13.0107010000        0.0391282527
        1.9622572000        0.2855840539
        0.4445379600        0.7689908602
 s  1 1.0
        0.1219496200        1.0000000000
 p  1 1.0
        0.8000000000        1.0000000000
 
[5D]
[7F]
[9G]
[MO]
 Ene=   0.88691925108552E+00
 Spin= Alpha
 Occup=    0.000000
   1     -0.000011873012
   2     -0.000005402425
   3      0.000028367005
   4      0.000000957486
   5      0.000040240534
   6     -0.000073275822
   7     -0.000284426143
   8      0.003321030102
   9     -0.000186528871
  10      0.000010998773
  11     -0.000010181287
  12      0.000003172423
  13     -0.000012834438
  14      0.000012296737
  15     -0.000004506377
  16     -0.000014142433
  17      0.000016416895
  18     -0.000000219430
  19     -0.000062544383
  20      0.000028619723
  21     -0.000025994964
  22     -0.001043016169
  23      0.000222322665
  24     -0.000025645399
  25     -0.000614755085
  26      0.000164778884
  27      0.002752520308
  28     -0.000293991796
  29     -0.000154688751
  30      0.001777833708
  31     -0.001022044511
  32      0.002020864515
  33     -0.001243933633
  34      0.000585031230
  35     -0.000001027391
  36     -0.000004207866
  37      0.000002444069
  38      0.000000448677
  39     -0.000001066024
  40     -0.000001236860
  41     -0.000002967840
  42     -0.000177837118
  43      0.002171376294
  44     -0.007121407170
  45     -0.000156830979
  46      0.000259154588
  47      0.000033951061
  48      0.000867791195
  49     -0.001325004694
  50      0.000015932781
  51     -0.000106261557
  52      0.000042849135
  53      0.000016123932
  54     -0.000236580868
  55     -0.000096466142
  56     -0.000129449437
  57      0.001533634689
  58     -0.002902293565
  59     -0.000105878694
  60      0.000210992520
  61     -0.000134967699
  62      0.000496820247
  63     -0.000980158173
  64      0.001544908944
  65     -0.000093204884
  66     -0.000037101392
  67     -0.000063436860
  68     -0.000218974860
  69     -0.000122541512
  70      0.000963653762
  71      0.001414384411
  72     -0.000018402754
  73      0.000047918329
  74     -0.000012461912
  75      0.000641896784
  76      0.000836275079
  77      0.000155961858
  78     -0.000249419885
  79     -0.000152833158
  80      0.000440610426
  81      0.000632756361
  82      0.000107259684
  83     -0.000231348151
  84      0.000182399529
  85      0.000676461718
  86      0.001097940424
  87     -0.000050352415
  88      0.000055490339
  89     -0.000001640157
 Ene=   0.10557119327898E+01
 Spin= Alpha
 Occup=    0.000000
   1      0.000095817076
   2      0.000047236516
   3     -0.000623214418
   4     -0.000944008070
   5      0.000597512708
   6      0.002426794458
   7     -0.001490734998
   8      0.000043360892
   9     -0.001498098534
  10      0.002376532164
  11      0.004886425156
  12      0.000287683610
  13     -0.002466028803
  14     -0.004091123037
  15     -0.000274286791
  16     -0.007245479074
  17     -0.016537371442
  18     -0.000871710258
  19      0.008040921654
  20      0.017398191800
  21      0.000864221863
  22      0.002810189546
  23      0.022027234145
  24      0.011983618598
  25      0.155331704658
  26      0.060961913244
  27     -0.004024617242
  28     -0.030493408709
  29     -0.016362881484
  30     -0.216324780869
  31     -0.081781036163
  32      0.006725504014
  33      0.013730478563
  34      0.001096487455
  35     -0.000006746100
  36     -0.000025842067
  37     -0.000064387885
  38     -0.000026601749
  39      0.000015238455
  40     -0.000154367541
  41      0.000034423914
  42     -0.000440004894
  43      0.001190022451
  44      0.001255731555
  45     -0.001141613952
  46      0.004415901553
  47     -0.000210131133
  48      0.022476397966
  49      0.032125554659
  50      0.003661214438
  51     -0.000572318815
  52      0.001270960254
  53     -0.006313686935
  54      0.101761592003
  55      0.046178474923
  56     -0.000270661505
  57     -0.000256822384
  58      0.004479905505
  59      0.000311690226
  60      0.006728621840
  61      0.000300726223
  62      0.025115536866
  63      0.035563846775
  64      0.002372490575
  65      0.005172132150
  66      0.026118342377
  67      0.022134636523
  68      0.097479520638
  69      0.042219965433
  70     -0.019025269069
  71     -0.019924247617
  72      0.076483529924
  73     -0.041629413176
  74     -0.015594698753
  75      0.016508439139
  76      0.019716894619
  77     -0.071796772552
  78      0.052643569568
  79      0.016507466654
  80      0.018933758252
  81      0.020487299034
  82     -0.063976972584
  83      0.053372823232
  84     -0.036314088839
  85     -0.021559704857
  86     -0.021592467318
  87      0.068929664396
  88     -0.040067245541
  89      0.037394385965
 Ene=   0.10679620746619E+01
 Spin= Alpha
 Occup=    0.000000
   1      0.000016868451
   2      0.000008401947
   3     -0.000119000237
   4     -0.000188243760
   5      0.000126883994
   6      0.000470837540
   7     -0.000349249765
   8      0.000537104588
   9     -0.000307733106
  10     -0.000123162746
  11      0.000074886608
  12      0.000052617879
  13      0.000076692868
  14     -0.000023405107
  15     -0.000281399142
  16      0.000538684686
  17     -0.000336184744
  18     -0.000146922283
  19     -0.000694075413
  20      0.000356900240
  21      0.001026098078
  22     -0.000108844658
  23      0.000122102123
  24     -0.000343749891
  25      0.000335398347
  26     -0.000744636948
  27     -0.000122786308
  28     -0.000853844346
  29      0.001922862572
  30     -0.000507021243
  31      0.001087731941
  32      0.000392906601
  33     -0.000088472163
  34     -0.002048128744
  35     -0.000005337600
  36      0.000003089130
  37     -0.000004433262
  38     -0.000008942614
  39     -0.000008850328
  40      0.000002167793
  41      0.000003535377
  42     -0.000037886229
  43     -0.000876896421
  44      0.008596877934
  45     -0.000251793090
  46      0.000596466011
  47     -0.000258807252
  48     -0.002347964517
  49     -0.003089592827
  50     -0.002409865574
  51      0.000028830495
  52     -0.000460604775
  53      0.000517246262
  54      0.000154106896
  55      0.000251854195
  56     -0.000097399163
  57      0.001330521263
  58     -0.008537775887
  59     -0.000766786651
  60      0.000089383421
  61     -0.000160608245
  62      0.003806823294
  63      0.002512100342
  64     -0.001975821835
  65      0.000191209374
  66      0.000449538984
  67     -0.000149140800
  68     -0.000405842545
  69      0.000276597344
  70      0.000177308480
  71      0.000683570049
  72     -0.000186199671
  73     -0.000076500266
  74      0.000048234426
  75     -0.001716849181
  76     -0.001716362906
  77     -0.000599409892
  78      0.000288179161
  79     -0.000295077726
  80      0.001410403910
  81      0.001709300563
  82      0.000159401428
  83      0.000056782085
  84     -0.000075220187
  85     -0.000486462554
  86     -0.000703695047
  87     -0.000368425455
  88      0.000390504160
  89      0.000137011359
 Ene=   0.10986136764221E+01
 Spin= Alpha
 Occup=    0.000000
   1      0.003339266577
   2      0.001720909318
   3     -0.029801128537
   4     -0.052026170280
   5      0.039716834251
   6      0.121387989574
   7     -0.124883048250
   8      0.449460163801
   9     -0.083459728900
  10     -0.035436864780
  11      0.024784630785
  12     -0.005596866796
  13      0.021137607545
  14     -0.016415838517
  15      0.003438856238
  16      0.162608439032
  17     -0.112367090115
  18      0.025655236483
  19     -0.223190308863
  20      0.158223056229
  21     -0.035520635610
  22     -0.162307038379
  23      0.057916108159
  24     -0.029862765500
  25      0.079553677344
  26     -0.181018468655
  27      0.204361908913
  28     -0.071917307819
  29      0.035629917204
  30     -0.092220555386
  31      0.211786888966
  32      0.271564419355
  33     -0.184187806489
  34      0.042035891215
  35      0.000259878732
  36      0.000683158226
  37     -0.000476276812
  38     -0.000137611218
  39      0.000299090663
  40      0.000177242569
  41      0.001024281291
  42     -0.025987987195
  43      0.185652004661
  44     -0.334330887838
  45     -0.141644866044
  46      0.096643682067
  47     -0.048583683281
  48      0.205743120517
  49     -0.142302710636
  50      0.074714878074
  51     -0.026759138111
  52     -0.168071341348
  53      0.119053113197
  54     -0.009752455960
  55      0.069163444802
  56     -0.025369660776
  57      0.183425738845
  58     -0.344644994093
  59     -0.149141412188
  60      0.098372697818
  61      0.004571942873
  62      0.220382073737
  63     -0.141893294688
  64     -0.010028667395
  65      0.058861845189
  66      0.147683549029
  67     -0.093662709897
  68     -0.053477921052
  69      0.104497785742
  70      0.001057645884
  71      0.043202526290
  72     -0.063063253687
  73      0.056697663771
  74     -0.037279697887
  75      0.000739342724
  76      0.041551508663
  77     -0.080871565363
  78      0.042667270276
  79     -0.037323577277
  80      0.004591519756
  81      0.043282527928
  82     -0.087694720327
  83      0.045963351626
  84      0.012489442483
  85      0.002443478425
  86      0.043521016065
  87     -0.071052992512
  88      0.055642176245
  89      0.016859872761
 Ene=   0.11135022060542E+01
 Spin= Alpha
 Occup=    0.000000
   1      0.000000118440
   2      0.000000054447
   3     -0.000000350687
   4     -0.000000156382
   5     -0.000000243250
   6      0.000001008273
   7      0.000002332710
   8     -0.000047717873
   9      0.000005435571
  10      0.000009769977
  11      0.000130216509
  12      0.000494375422
  13      0.000005006228
  14     -0.000279539337
  15     -0.001228770811
  16     -0.000042261251
  17     -0.000434451520
  18     -0.001589049654
  19      0.000023449963
  20      0.001099079490
  21      0.004563434335
  22     -0.000147852896
  23     -0.000521382176
  24      0.000799475108
  25      0.000301673579
  26     -0.000030836411
  27      0.000568218834
  28      0.001974025068
  29     -0.002613481465
  30     -0.000353796630
  31      0.000392429561
  32     -0.000242088993
  33     -0.000334443798
  34     -0.000144435780
  35     -0.000000638495
  36     -0.000000149187
  37      0.000000020504
  38      0.000005848235
  39      0.000007009584
  40     -0.000005308520
  41     -0.000000398430
  42     -0.000164023269
  43      0.002933159246
  44     -0.019507565256
  45     -0.000168898099
  46     -0.000058469870
  47      0.000079475580
  48      0.001251352877
  49      0.002055685093
  50      0.005600569724
  51     -0.000125359687
  52      0.000244638153
  53     -0.000324327141
  54      0.000267577064
  55      0.000054092423
  56      0.000167007639
  57     -0.002976592015
  58      0.019613442463
  59      0.000285809701
  60      0.000289001389
  61      0.000142668684
  62     -0.002991231765
  63     -0.002148663324
  64      0.005033447715
  65      0.000253870709
  66      0.000247717498
  67     -0.000136807506
  68      0.000443450781
  69      0.000354087804
  70      0.000479506687
  71      0.000986796790
  72      0.000602161649
  73     -0.000301514940
  74      0.000145545356
  75      0.001881116909
  76      0.002462041731
  77      0.000217544360
  78     -0.000033371830
  79      0.000435096274
  80     -0.001823832842
  81     -0.002782234362
  82     -0.001081941504
  83      0.000499507086
  84      0.000141603513
  85     -0.000563281404
  86     -0.000699063959
  87      0.000073394388
  88     -0.000237941937
  89      0.000162184284
 Ene=   0.11826338538300E+01
 Spin= Alpha
 Occup=    0.000000
   1      0.002237237540
   2      0.001073129016
   3     -0.011281104751
   4     -0.014189153531
   5      0.006257736267
   6      0.041073081343
   7     -0.002972284796
   8     -0.269913665709
   9      0.018957032474
  10     -0.011000372755
  11      0.006856828065
  12     -0.001659286775
  13      0.007241353452
  14     -0.004166589536
  15      0.001065714135
  16      0.049192529585
  17     -0.031035062644
  18      0.007449751925
  19     -0.064182121461
  20      0.039631345277
  21     -0.009632199709
  22      0.424238598386
  23     -0.090489881785
  24     -0.022744556261
  25      0.108417695545
  26     -0.238590656725
  27     -0.622267457240
  28      0.130056361885
  29      0.037995544877
  30     -0.173584557137
  31      0.380047339834
  32     -0.142194993816
  33      0.095032247110
  34     -0.022777967693
  35      0.000349094925
  36      0.000889802691
  37     -0.000614138427
  38     -0.000196849413
  39      0.000203904746
  40      0.000085809439
  41      0.000248549385
  42      0.015632376533
  43     -0.203275519360
  44      0.528030637235
  45     -0.004226674992
  46      0.002653348139
  47     -0.009432061435
  48     -0.075951642558
  49      0.043129042770
  50      0.070823092614
  51      0.048563902558
  52     -0.018040659458
  53      0.008625641508
  54     -0.017913063163
  55      0.039771153773
  56      0.015576696132
  57     -0.202188487650
  58      0.514057084328
  59     -0.007422010416
  60      0.003385076816
  61      0.007519265920
  62     -0.048637058916
  63      0.043387521607
  64     -0.097336447459
  65      0.048934729232
  66     -0.013638052219
  67      0.005046851928
  68     -0.018662877243
  69      0.040437852838
  70     -0.067307842531
  71     -0.126889278042
  72     -0.059289848469
  73      0.000976442861
  74      0.025626684066
  75     -0.068317383596
  76     -0.126740097442
  77     -0.022556867102
  78      0.048557335120
  79      0.030375974199
  80     -0.067051182013
  81     -0.125349580949
  82     -0.012452924309
  83      0.047704982628
  84     -0.036616101817
  85     -0.068096044631
  86     -0.127642237533
  87     -0.049277657033
  88     -0.000073108145
  89     -0.041321526665
 Ene=   0.12428601460456E+01
 Spin= Alpha
 Occup=    0.000000
   1      0.000007462716
   2      0.000003578359
   3     -0.000037481101
   4     -0.000046883674
   5      0.000020477402
   6      0.000136059976
   7     -0.000007388137
   8     -0.000980486523
   9      0.000078238348
  10     -0.000028107482
  11      0.000038897448
  12     -0.000004810301
  13      0.000016432262
  14     -0.000022163911
  15      0.000009897130
  16      0.000135475509
  17     -0.000172250221
  18      0.000020862007
  19     -0.000184366177
  20      0.000212628310
  21     -0.000054416564
  22      0.001671004611
  23     -0.000492423398
  24     -0.000195711353
  25      0.000382593767
  26     -0.000931885840
  27     -0.002242471550
  28      0.000724574763
  29      0.000264859966
  30     -0.000472816493
  31      0.001427804935
  32     -0.000480845484
  33      0.000396920618
  34      0.000016499663
  35      0.000001531210
  36      0.000003057689
  37     -0.000002021545
  38     -0.000000630947
  39      0.000001124407
  40     -0.000001162445
  41      0.000000772041
  42      0.000057860357
  43     -0.000691357662
  44      0.001368358951
  45     -0.000006652201
  46     -0.000024138801
  47      0.000005335179
  48      0.000066889867
  49      0.000644083828
  50      0.000340910288
  51      0.000199686268
  52     -0.000034565079
  53     -0.000087236999
  54      0.000303814996
  55      0.000329536841
  56      0.000060896161
  57     -0.000826086021
  58      0.002307352448
  59      0.000050442665
  60      0.000071978001
  61      0.000020605207
  62     -0.000695281130
  63     -0.000511276822
  64     -0.000234761445
  65      0.000177901798
  66     -0.000171958431
  67     -0.000040395999
  68     -0.000201147518
  69      0.000111838681
  70     -0.000332599996
  71     -0.000583992699
  72      0.000299288059
  73     -0.000326726527
  74     -0.000016028526
  75     -0.000072060562
  76     -0.000208991538
  77     -0.000557382991
  78      0.000522316924
  79      0.000286478031
  80     -0.000460769410
  81     -0.000755468428
  82      0.000091781609
  83      0.000000576101
  84      0.000072912267
  85     -0.000104953717
  86     -0.000186730268
  87     -0.000429028647
  88      0.000068633918
  89     -0.000397060593
 Ene=   0.12433733816464E+01
 Spin= Alpha
 Occup=    0.000000
   1     -0.000005904766
   2     -0.000002930021
   3      0.000040238379
   4      0.000062093791
   5     -0.000040857688
   6     -0.000154605421
   7      0.000077587231
   8      0.000634587839
   9     -0.000039087152
  10      0.000133572622
  11      0.000089554308
  12     -0.000038313675
  13     -0.000081471585
  14     -0.000069050934
  15      0.000035584861
  16     -0.000612933500
  17     -0.000373703257
  18      0.000174197495
  19      0.000834640411
  20      0.000512616827
  21     -0.000300606135
  22      0.004482129352
  23      0.021858241447
  24      0.034122856880
  25     -0.004728197094
  26     -0.004378190508
  27     -0.005508631582
  28     -0.026972391447
  29     -0.043065859218
  30      0.006076961613
  31      0.005424734665
  32      0.000233043084
  33     -0.000256178980
  34      0.000746015293
  35     -0.000008797052
  36     -0.000077148191
  37     -0.000038684385
  38     -0.000323358278
  39     -0.000132612895
  40      0.000062136781
  41      0.000015237487
  42      0.000209907041
  43     -0.000712556947
  44     -0.003977010768
  45      0.014865510087
  46      0.022214667581
  47      0.001284599927
  48     -0.176085088391
  49     -0.270340588788
  50     -0.019673190587
  51      0.003794961311
  52      0.011699526247
  53      0.030786913714
  54     -0.100051140933
  55     -0.046381559170
  56     -0.000064998738
  57      0.000438768705
  58      0.002794051027
  59     -0.013177934370
  60     -0.020493769697
  61     -0.001351349241
  62      0.175557698415
  63      0.269619287338
  64      0.023210972426
  65      0.006985260038
  66      0.038277391406
  67      0.047100929939
  68      0.091185735470
  69      0.034955007202
  70      0.070868786041
  71      0.105921365415
  72     -0.152647187320
  73      0.067249346803
  74      0.061358053428
  75     -0.069688461412
  76     -0.105743614681
  77      0.127251155994
  78     -0.104675774689
  79     -0.066499777112
  80      0.070088467924
  81      0.106428077343
  82     -0.104171689040
  83      0.104447415487
  84     -0.099655393536
  85     -0.070039595212
  86     -0.106374942059
  87      0.130376983447
  88     -0.065516598585
  89      0.102822451853
 Ene=   0.12553620427758E+01
 Spin= Alpha
 Occup=    0.000000
   1      0.000000372537
   2      0.000000188584
   3     -0.000002961280
   4     -0.000005033857
   5      0.000003589542
   6      0.000012632730
   7     -0.000011074323
   8      0.000025478515
   9     -0.000008446159
  10      0.000076329843
  11      0.000145867760
  12      0.000123262161
  13     -0.000050844914
  14     -0.000168366258
  15     -0.000394661712
  16     -0.000312335250
  17     -0.000575937743
  18     -0.000408096506
  19      0.000378141210
  20      0.000955061631
  21      0.001615841051
  22     -0.002105215674
  23     -0.010023325364
  24     -0.017471772718
  25      0.001075569859
  26      0.002100273848
  27      0.003422438842
  28      0.016567407325
  29      0.031154253281
  30     -0.001597668732
  31     -0.003725846305
  32      0.000401097398
  33     -0.000090725017
  34     -0.002856244648
  35     -0.000016869072
  36     -0.000038974561
  37     -0.000027111148
  38     -0.000192528907
  39     -0.000091828183
  40      0.000029568888
  41      0.000014762726
  42      0.000019328077
  43     -0.001547236373
  44      0.012180597008
  45      0.003697523594
  46      0.005518342961
  47      0.000157858356
  48     -0.037893167379
  49     -0.056383510769
  50     -0.007660646945
  51      0.000668746984
  52      0.002351039109
  53      0.004374080765
  54     -0.003038045505
  55     -0.001632246411
  56     -0.000022778223
  57      0.001571762611
  58     -0.012121214642
  59     -0.003349392955
  60     -0.005120812919
  61     -0.000712129966
  62      0.038163729125
  63      0.055407235481
  64      0.001794582923
  65      0.000559391244
  66      0.003321007066
  67      0.004933073622
  68      0.002919656001
  69      0.000734268003
  70      0.013505227321
  71      0.020565971811
  72     -0.007334421953
  73     -0.004029333295
  74      0.008822727583
  75     -0.015375837511
  76     -0.022268201632
  77     -0.000630518862
  78     -0.006904811164
  79     -0.010104532924
  80      0.015239135866
  81      0.021647690315
  82      0.001888857861
  83      0.007176234651
  84     -0.009707171734
  85     -0.013413621729
  86     -0.020012093127
  87      0.005708549866
  88      0.003041336631
  89      0.010436216923
 Ene=   0.12887832078064E+01
 Spin= Alpha
 Occup=    0.000000
   1     -0.000011963007
   2     -0.000005988196
   3      0.000087498158
   4      0.000141750559
   5     -0.000096921916
   6     -0.000360029634
   7      0.000253898275
   8      0.000521459037
   9      0.000010707598
  10     -0.000083824938
  11     -0.000240296356
  12      0.000200898764
  13      0.000062267653
  14      0.000162647070
  15     -0.000161858225
  16      0.000330342720
  17      0.001052887686
  18     -0.000800682550
  19     -0.000417270778
  20     -0.001440960352
  21      0.001001778696
  22      0.050838003495
  23      0.237850007909
  24      0.373375645777
  25     -0.039744885316
  26     -0.049514528175
  27     -0.080113203439
  28     -0.373701341107
  29     -0.589414103073
  30      0.062593353779
  31      0.078468340357
  32      0.000120572585
  33      0.000222977662
  34      0.002393960496
  35      0.000123181393
  36      0.000678570032
  37      0.000391007751
  38      0.003091003599
  39      0.001325069535
  40     -0.000584109753
  41     -0.000192080023
  42      0.000069985468
  43      0.002078621416
  44     -0.019595689421
  45     -0.047810580322
  46     -0.073244194113
  47     -0.005985152482
  48      0.470566045292
  49      0.717033714108
  50      0.062021158804
  51     -0.007910007366
  52     -0.035317714681
  53     -0.053909603879
  54     -0.012156316764
  55     -0.001201270529
  56      0.000042840585
  57     -0.002123510385
  58      0.016359196963
  59      0.048084869832
  60      0.073181989522
  61      0.006383745280
  62     -0.471081357542
  63     -0.716639556677
  64     -0.054365627114
  65     -0.006881095802
  66     -0.030516119021
  67     -0.050115359209
  68      0.022091152117
  69      0.014052491148
  70     -0.174103151952
  71     -0.263821646243
  72      0.025187414350
  73      0.130005175782
  74     -0.121769056300
  75      0.178315114410
  76      0.268116656054
  77      0.100422712345
  78      0.060918222428
  79      0.137509653197
  80     -0.178064783337
  81     -0.265728333727
  82     -0.131866133897
  83     -0.057149143642
  84      0.105740325261
  85      0.175814878276
  86      0.263379105001
  87      0.007953318861
  88     -0.129977497335
  89     -0.120395049084
 Ene=   0.13060935634355E+01
 Spin= Alpha
 Occup=    0.000000
   1      0.000025328006
   2      0.000012181892
   3     -0.000131106612
   4     -0.000167591994
   5      0.000078409763
   6      0.000473579379
   7     -0.000039598210
   8     -0.003681052000
   9      0.000352582298
  10      0.000351432691
  11      0.000862170091
  12      0.000111508242
  13     -0.000287188273
  14     -0.000586867930
  15     -0.000092490687
  16     -0.001389076424
  17     -0.003720461062
  18     -0.000448877178
  19      0.001862621016
  20      0.004954480152
  21      0.000603738307
  22      0.006916655858
  23     -0.003312335074
  24     -0.000959948910
  25     -0.005399056707
  26     -0.006991901600
  27     -0.008498557553
  28      0.005004534497
  29      0.001314550241
  30      0.009543904765
  31      0.010503428382
  32     -0.001212709904
  33      0.002277610490
  34      0.000345983901
  35      0.000006191348
  36      0.000010473488
  37     -0.000002904526
  38     -0.000016877302
  39      0.000003320100
  40     -0.000053332356
  41      0.000014606217
  42      0.000243428498
  43     -0.002436893075
  44      0.002165866280
  45      0.000793639520
  46      0.001126719348
  47      0.000299611072
  48     -0.003507010285
  49     -0.003392261048
  50      0.001129253409
  51      0.001061879746
  52      0.000275310412
  53     -0.000229413025
  54      0.002210765176
  55      0.001795828539
  56      0.000294860644
  57     -0.003943297217
  58      0.011826567437
  59      0.000805025316
  60      0.001082755429
  61      0.000165071635
  62     -0.002929505496
  63     -0.002125943768
  64      0.000054366554
  65      0.001089926389
  66      0.000047210108
  67      0.000826386690
  68      0.002044994852
  69      0.001780915501
  70      0.000348189783
  71      0.000915701642
  72      0.002694648610
  73     -0.005084991364
  74      0.002383244756
  75     -0.001256121954
  76     -0.003377585594
  77     -0.005804952297
  78      0.002191520097
  79     -0.001034439318
  80     -0.001746644036
  81     -0.003823415019
  82     -0.006010562403
  83      0.002581885449
  84     -0.000610526292
  85     -0.000704713631
  86     -0.000370605728
  87      0.002720649162
  88     -0.004525168615
  89     -0.001050206409
 Ene=   0.13236640976094E+01
 Spin= Alpha
 Occup=    0.000000
   1      0.000029720409
   2      0.000015674325
   3     -0.000303421203
   4     -0.000553666571
   5      0.000442041053
   6      0.001261915312
   7     -0.001432970259
   8      0.004911567693
   9     -0.001415682065
  10      0.020711556793
  11      0.031690206054
  12      0.002719853577
  13     -0.015516200761
  14     -0.022130856455
  15     -0.001942957771
  16     -0.088001085369
  17     -0.136080005959
  18     -0.011633505313
  19      0.121286730649
  20      0.183598734274
  21      0.015769098056
  22     -0.003695343725
  23     -0.044987372120
  24     -0.022462338612
  25     -0.320309882249
  26     -0.140359046818
  27      0.005498039870
  28      0.070753156287
  29      0.035019631472
  30      0.504624194418
  31      0.218450822522