[Molden Format]
[Title]
generated by TRESC, real part2 of MOs of job SCN
 
[Atoms] AU
 S   1  16    0.0000000000    0.0000000000    1.9184736755
 C   2   6    0.0000000000    0.0000000000   -1.1567057569
 N   3   7    0.0000000000    0.0000000000   -3.3890492760
[GTO]
  1 0
 s  5 1.0
    10081.3659290000        0.0067330718
     1468.8676987000        0.0423201277
      327.2465016600        0.1866835343
       90.5285201140        0.4849802687
       27.5058308280        0.4517376429
 s  3 1.0
       46.3853988360       -0.0950589434
        5.0228188449        0.5843701906
        2.0306206045        0.5413909427
 s  1 1.0
        0.3606627882        1.0000000000
 s  1 1.0
        0.1371410729        1.0000000000
 p  5 1.0
      604.8788900300        0.0002353489
      140.0897861900        0.0017386166
       44.4994657800        0.0077865988
       16.4748871580        0.0220140918
        6.5229645048        0.0378945448
 p  5 1.0
      270.9504306400        0.0092081513
       62.5377853170        0.0653131413
       19.3546142200        0.2445470601
        6.7163477485        0.4820783852
        2.4098646724        0.3917477785
 p  1 1.0
        0.6191509478        1.0000000000
 p  1 1.0
        0.1701457548        1.0000000000
 d  1 1.0
        0.5500000000        1.0000000000
 
  2 0
 s  5 1.0
     1231.7975026000        0.0058423196
      185.5974766200        0.0415113222
       42.0875016200        0.1832849990
       11.6300369400        0.4683526005
        3.5840894779        0.4430601820
 s  1 1.0
        0.4029351893        1.0000000000
 s  1 1.0
        0.1309419451        1.0000000000
 p  3 1.0
        9.4821246358        0.0381720490
        2.0121097169        0.2099973699
        0.5481253660        0.5104097902
 p  1 1.0
        0.1527756940        1.0000000000
 d  1 1.0
        0.8000000000        1.0000000000
 
  3 0
 s  5 1.0
     1706.0150550000        0.0058639453
      255.9938356800        0.0413450288
       58.1565771970        0.1820914202
       16.1430707430        0.4678591214
        4.9963209539        0.4434151324
 s  1 1.0
        0.5882550288        1.0000000000
 s  1 1.0
        0.1877013255        1.0000000000
 p  3 1.0
       13.5897862110        0.0400190920
        2.9274822154        0.2175789499
        0.7994670210        0.5117738303
 p  1 1.0
        0.2195247995        1.0000000000
 d  1 1.0
        1.0000000000        1.0000000000
 
[5D]
[7F]
[9G]
[MO]
 Ene=   0.61349190031264E+00
 Spin= Alpha
 Occup=    0.000000
   1      0.000000000000
   2     -0.000000000000
   3      0.000000000000
   4      0.000000000000
   5     -0.000000000000
   6     -0.000000000000
   7     -0.040853478971
   8      0.000000000000
   9      0.000000000000
  10      0.261889726326
  11     -0.000000000000
  12     -0.000000000000
  13     -0.750677751042
  14     -0.000000000000
  15      0.000000000000
  16      0.616406998894
  17      0.000000000000
  18      0.000000000000
  19      0.759630919235
  20     -0.000000000000
  21      0.000000000000
  22      0.000000000000
  23     -0.000000000000
  24      0.000000000000
  25      0.000000000000
  26      0.000000000000
  27      0.103040991071
  28     -0.000000000000
  29      0.000000000000
  30      0.095886018600
  31      0.000000000000
  32     -0.000000000000
  33     -0.116535603610
  34     -0.000000000000
  35      0.000000000000
  36     -0.000000000000
  37      0.000000000000
  38     -0.000000000000
  39      0.000000000000
  40     -0.000000000000
  41     -0.214545411992
  42     -0.000000000000
  43      0.000000000000
  44      0.046438069076
  45     -0.000000000000
  46      0.000000000000
  47      0.015072116136
  48      0.000000000000
  49     -0.000000000000
 Ene=   0.62061754993169E+00
 Spin= Alpha
 Occup=    0.000000
   1      0.000000000000
   2      0.000000000000
   3      0.000000000000
   4      0.000000000000
   5      0.000000000000
   6      0.000000000000
   7      0.000000000000
   8      0.000000000000
   9      0.000000000000
  10      0.000000000000
  11      0.000000000000
  12      0.000000000000
  13      0.000000000000
  14      0.000000000000
  15      0.000000000000
  16      0.000000000000
  17      0.000000000000
  18      0.000000000000
  19      0.000000000000
  20      0.000000000000
  21      0.000000000000
  22      0.000000000000
  23      0.000000000000
  24      0.000000000000
  25      0.000000000000
  26      0.000000000000
  27      0.000000000000
  28      0.000000000000
  29      0.000000000000
  30      0.000000000000
  31      0.000000000000
  32      0.000000000000
  33      0.000000000000
  34      0.000000000000
  35      0.000000000000
  36      0.000000000000
  37      0.000000000000
  38      0.000000000000
  39      0.000000000000
  40      0.000000000000
  41      0.000000000000
  42      0.000000000000
  43      0.000000000000
  44      0.000000000000
  45      0.000000000000
  46      0.000000000000
  47      0.000000000000
  48      0.000000000000
  49      0.000000000000
 Ene=   0.62912231267495E+00
 Spin= Alpha
 Occup=    0.000000
   1      0.000000000000
   2      0.000000000000
   3      0.000000000000
   4      0.000000000000
   5      0.000000000000
   6      0.000000000000
   7      0.000000000000
   8      0.000000000000
   9      0.000000000000
  10      0.000000000000
  11      0.000000000000
  12      0.000000000000
  13      0.000000000000
  14      0.000000000000
  15      0.000000000000
  16      0.000000000000
  17      0.000000000000
  18      0.000000000000
  19      0.000000000000
  20      0.000000000000
  21      0.000000000000
  22      0.000000000000
  23      0.000000000000
  24      0.000000000000
  25      0.000000000000
  26      0.000000000000
  27      0.000000000000
  28      0.000000000000
  29      0.000000000000
  30      0.000000000000
  31      0.000000000000
  32      0.000000000000
  33      0.000000000000
  34      0.000000000000
  35      0.000000000000
  36      0.000000000000
  37      0.000000000000
  38      0.000000000000
  39      0.000000000000
  40      0.000000000000
  41      0.000000000000
  42      0.000000000000
  43      0.000000000000
  44      0.000000000000
  45      0.000000000000
  46      0.000000000000
  47      0.000000000000
  48      0.000000000000
  49      0.000000000000
 Ene=   0.64207437278157E+00
 Spin= Alpha
 Occup=    0.000000
   1      0.000000000000
   2      0.000000000000
   3      0.000000000000
   4      0.000000000000
   5      0.000000000000
   6      0.000000000000
   7      0.000000000000
   8      0.000000000000
   9      0.000000000000
  10      0.000000000000
  11      0.000000000000
  12      0.000000000000
  13      0.000000000000
  14      0.000000000000
  15      0.000000000000
  16      0.000000000000
  17      0.000000000000
  18      0.000000000000
  19      0.000000000000
  20      0.000000000000
  21      0.000000000000
  22      0.000000000000
  23      0.000000000000
  24      0.000000000000
  25      0.000000000000
  26      0.000000000000
  27      0.000000000000
  28      0.000000000000
  29      0.000000000000
  30      0.000000000000
  31      0.000000000000
  32      0.000000000000
  33      0.000000000000
  34      0.000000000000
  35      0.000000000000
  36      0.000000000000
  37      0.000000000000
  38      0.000000000000
  39      0.000000000000
  40      0.000000000000
  41      0.000000000000
  42      0.000000000000
  43      0.000000000000
  44      0.000000000000
  45      0.000000000000
  46      0.000000000000
  47      0.000000000000
  48      0.000000000000
  49      0.000000000000
 Ene=   0.64575223867574E+00
 Spin= Alpha
 Occup=    0.000000
   1      0.000915075987
   2     -0.006835985489
   3     -0.081350966937
   4      2.179698502041
   5     -0.007476854828
   6      0.000000000000
   7     -0.000000000000
   8      0.044111351759
   9     -0.000000000000
  10      0.000000000000
  11     -0.129490465685
  12      0.000000000000
  13     -0.000000000000
  14     -1.102387443857
  15     -0.000000000000
  16      0.000000000000
  17     -0.004495171940
  18      0.000000000000
  19      0.000000000000
  20     -0.034975601915
  21      0.000000000000
  22     -0.189503140804
  23      1.542009052657
  24     -0.649629139947
  25     -0.214667484914
  26      0.000000000000
  27     -0.000000000000
  28     -2.973214633393
  29      0.000000000000
  30      0.000000000000
  31      0.027117814287
  32     -0.000000000000
  33     -0.000000000000
  34     -0.003030367640
  35      0.000000000000
  36      0.202147706152
  37     -0.807973143648
  38     -1.883289955714
  39      0.336029277802
  40     -0.000000000000
  41      0.000000000000
  42     -1.733112057675
  43      0.000000000000
  44     -0.000000000000
  45      0.034022075050
  46      0.000000000000
  47      0.000000000000
  48     -0.004784542250
  49      0.000000000000
 Ene=   0.64644505964835E+00
 Spin= Alpha
 Occup=    0.000000
   1      0.000000000000
   2      0.000000000000
   3      0.000000000000
   4      0.000000000000
   5      0.000000000000
   6      0.000000000000
   7      0.000000000000
   8      0.000000000000
   9      0.000000000000
  10      0.000000000000
  11      0.000000000000
  12      0.000000000000
  13      0.000000000000
  14      0.000000000000
  15      0.000000000000
  16      0.000000000000
  17      0.000000000000
  18      0.000000000000
  19      0.000000000000
  20      0.000000000000
  21      0.000000000000
  22      0.000000000000
  23      0.000000000000
  24      0.000000000000
  25      0.000000000000
  26      0.000000000000
  27      0.000000000000
  28      0.000000000000
  29      0.000000000000
  30      0.000000000000
  31      0.000000000000
  32      0.000000000000
  33      0.000000000000
  34      0.000000000000
  35      0.000000000000
  36      0.000000000000
  37      0.000000000000
  38      0.000000000000
  39      0.000000000000
  40      0.000000000000
  41      0.000000000000
  42      0.000000000000
  43      0.000000000000
  44      0.000000000000
  45      0.000000000000
  46      0.000000000000
  47      0.000000000000
  48      0.000000000000
  49      0.000000000000
 Ene=   0.65283258476947E+00
 Spin= Alpha
 Occup=    0.000000
   1      0.000000000000
   2      0.000000000000
   3      0.000000000000
   4      0.000000000000
   5      0.000000000000
   6      0.000000000000
   7      0.000000000000
   8      0.000000000000
   9      0.000000000000
  10      0.000000000000
  11      0.000000000000
  12      0.000000000000
  13      0.000000000000
  14      0.000000000000
  15      0.000000000000
  16      0.000000000000
  17      0.000000000000
  18      0.000000000000
  19      0.000000000000
  20      0.000000000000
  21      0.000000000000
  22      0.000000000000
  23      0.000000000000
  24      0.000000000000
  25      0.000000000000
  26      0.000000000000
  27      0.000000000000
  28      0.000000000000
  29      0.000000000000
  30      0.000000000000
  31      0.000000000000
  32      0.000000000000
  33      0.000000000000
  34      0.000000000000
  35      0.000000000000
  36      0.000000000000
  37      0.000000000000
  38      0.000000000000
  39      0.000000000000
  40      0.000000000000
  41      0.000000000000
  42      0.000000000000
  43      0.000000000000
  44      0.000000000000
  45      0.000000000000
  46      0.000000000000
  47      0.000000000000
  48      0.000000000000
  49      0.000000000000
 Ene=   0.71590637578953E+00
 Spin= Alpha
 Occup=    0.000000
   1     -0.000000000000
   2      0.000000000000
   3     -0.000000000000
   4      0.000000000001
   5      0.000000000000
   6      0.043974523249
   7     -0.000000000000
   8     -0.000000000000
   9     -0.314217251618
  10      0.000000000000
  11      0.000000000000
  12      0.949158723207
  13     -0.000000000000
  14     -0.000000000000
  15     -0.952147743469
  16      0.000000000000
  17     -0.000000000000
  18      0.452906561412
  19     -0.000000000000
  20      0.000000000000
  21     -0.000000000000
  22     -0.000000000000
  23      0.000000000000
  24     -0.000000000000
  25      0.000000000000
  26     -0.020623366913
  27      0.000000000000
  28     -0.000000000000
  29      0.293382438130
  30     -0.000000000000
  31     -0.000000000000
  32      0.006951872780
  33     -0.000000000000
  34     -0.000000000000
  35      0.000000000000
  36     -0.000000000000
  37      0.000000000000
  38     -0.000000000000
  39     -0.000000000000
  40     -0.540883442724
  41      0.000000000000
  42      0.000000000000
  43      0.472027936403
  44     -0.000000000000
  45     -0.000000000000
  46      0.002107406376
  47      0.000000000000
  48     -0.000000000000
  49      0.000000000000
 Ene=   0.73496194869716E+00
 Spin= Alpha
 Occup=    0.000000
   1     -0.003931189297
   2      0.029143746003
   3     -0.417080204455
   4      4.788966601912
   5      0.016105428005
   6      0.000000000000
   7     -0.000000000000
   8     -0.186764077435
   9     -0.000000000000
  10      0.000000000000
  11      0.585799789497
  12      0.000000000000
  13     -0.000000000000
  14     -3.108004882984
  15     -0.000000000000
  16      0.000000000000
  17     -0.044695663577
  18      0.000000000000
  19     -0.000000000000
  20     -0.033250300581
  21      0.000000000000
  22     -0.173037536588
  23      1.116671829628
  24     -2.896807428427
  25      0.621334350297
  26     -0.000000000000
  27     -0.000000000000
  28     -5.390805564763
  29      0.000000000000
  30     -0.000000000000
  31     -0.085458887504
  32     -0.000000000000
  33     -0.000000000000
  34     -0.002690576916
  35      0.000000000000
  36     -0.011979524765
  37      0.080704557938
  38     -2.890545116534
  39     -0.280851062840
  40     -0.000000000000
  41      0.000000000000
  42     -0.071376545685
  43     -0.000000000000
  44     -0.000000000000
  45     -0.031985069661
  46     -0.000000000000
  47     -0.000000000000
  48      0.001220266164
  49     -0.000000000000
 Ene=   0.73846916054095E+00
 Spin= Alpha
 Occup=    0.000000
   1      0.000000000000
   2      0.000000000000
   3      0.000000000000
   4      0.000000000000
   5      0.000000000000
   6      0.000000000000
   7      0.000000000000
   8      0.000000000000
   9      0.000000000000
  10      0.000000000000
  11      0.000000000000
  12      0.000000000000
  13      0.000000000000
  14      0.000000000000
  15      0.000000000000
  16      0.000000000000
  17      0.000000000000
  18      0.000000000000
  19      0.000000000000
  20      0.000000000000
  21      0.000000000000
  22      0.000000000000
  23      0.000000000000
  24      0.000000000000
  25      0.000000000000
  26      0.000000000000
  27      0.000000000000
  28      0.000000000000
  29      0.000000000000
  30      0.000000000000
  31      0.000000000000
  32      0.000000000000
  33      0.000000000000
  34      0.000000000000
  35      0.000000000000
  36      0.000000000000
  37      0.000000000000
  38      0.000000000000
  39      0.000000000000
  40      0.000000000000
  41      0.000000000000
  42      0.000000000000
  43      0.000000000000
  44      0.000000000000
  45      0.000000000000
  46      0.000000000000
  47      0.000000000000
  48      0.000000000000
  49      0.000000000000
 Ene=   0.74190704808342E+00
 Spin= Alpha
 Occup=    0.000000
   1     -0.000000000000
   2      0.000000000000
   3     -0.000000000000
   4      0.000000000002
   5      0.000000000000
   6      0.000000000000
   7      0.041791212918
   8     -0.000000000000
   9     -0.000000000000
  10     -0.311817616041
  11      0.000000000000
  12      0.000000000000
  13      0.943931445535
  14     -0.000000000001
  15     -0.000000000000
  16     -0.921917752354
  17     -0.000000000000
  18      0.000000000000
  19      0.440181727787
  20      0.000000000000
  21      0.000000000000
  22     -0.000000000000
  23      0.000000000000
  24     -0.000000000001
  25      0.000000000000
  26     -0.000000000000
  27      0.000552026560
  28     -0.000000000002
  29      0.000000000000
  30      0.235094985189
  31     -0.000000000000
  32      0.000000000000
  33      0.010457157645
  34     -0.000000000000
  35      0.000000000000
  36     -0.000000000000
  37      0.000000000000
  38     -0.000000000001
  39     -0.000000000000
  40     -0.000000000000
  41     -0.563752089343
  42     -0.000000000000
  43      0.000000000000
  44      0.513384142443
  45     -0.000000000000
  46      0.000000000000
  47      0.001806093405
  48      0.000000000000
  49     -0.000000000000
 Ene=   0.74873563685621E+00
 Spin= Alpha
 Occup=    0.000000
   1      0.000000000000
   2      0.000000000000
   3      0.000000000000
   4      0.000000000000
   5      0.000000000000
   6      0.000000000000
   7      0.000000000000
   8      0.000000000000
   9      0.000000000000
  10      0.000000000000
  11      0.000000000000
  12      0.000000000000
  13      0.000000000000
  14      0.000000000000
  15      0.000000000000
  16      0.000000000000
  17      0.000000000000
  18      0.000000000000
  19      0.000000000000
  20      0.000000000000
  21      0.000000000000
  22      0.000000000000
  23      0.000000000000
  24      0.000000000000
  25      0.000000000000
  26      0.000000000000
  27      0.000000000000
  28      0.000000000000
  29      0.000000000000
  30      0.000000000000
  31      0.000000000000
  32      0.000000000000
  33      0.000000000000
  34      0.000000000000
  35      0.000000000000
  36      0.000000000000
  37      0.000000000000
  38      0.000000000000
  39      0.000000000000
  40      0.000000000000
  41      0.000000000000
  42      0.000000000000
  43      0.000000000000
  44      0.000000000000
  45      0.000000000000
  46      0.000000000000
  47      0.000000000000
  48      0.000000000000
  49      0.000000000000
 Ene=   0.75781466717357E+00
 Spin= Alpha
 Occup=    0.000000
   1      0.000000000000
   2      0.000000000000
   3      0.000000000000
   4      0.000000000000
   5      0.000000000000
   6      0.000000000000
   7      0.000000000000
   8      0.000000000000
   9      0.000000000000
  10      0.000000000000
  11      0.000000000000
  12      0.000000000000
  13      0.000000000000
  14      0.000000000000
  15      0.000000000000
  16      0.000000000000
  17      0.000000000000
  18      0.000000000000
  19      0.000000000000
  20      0.000000000000
  21      0.000000000000
  22      0.000000000000
  23      0.000000000000
  24      0.000000000000
  25      0.000000000000
  26      0.000000000000
  27      0.000000000000
  28      0.000000000000
  29      0.000000000000
  30      0.000000000000
  31      0.000000000000
  32      0.000000000000
  33      0.000000000000
  34      0.000000000000
  35      0.000000000000
  36      0.000000000000
  37      0.000000000000
  38      0.000000000000
  39      0.000000000000
  40      0.000000000000
  41      0.000000000000
  42      0.000000000000
  43      0.000000000000
  44      0.000000000000
  45      0.000000000000
  46      0.000000000000
  47      0.000000000000
  48      0.000000000000
  49      0.000000000000
 Ene=   0.86438162916320E+00
 Spin= Alpha
 Occup=    0.000000
   1      0.000000000000
   2     -0.000000000000
   3      0.000000000000
   4     -0.000000000000
   5      0.000000000000
   6      0.020682942148
   7     -0.000000000000
   8     -0.000000000000
   9     -0.144582596301
  10      0.000000000000
  11      0.000000000000
  12      0.464657015721
  13     -0.000000000000
  14     -0.000000000000
  15     -0.746156540135
  16      0.000000000000
  17      0.000000000000
  18      0.406111668364
  19     -0.000000000000
  20      0.000000000000
  21     -0.000000000000
  22      0.000000000000
  23      0.000000000000
  24      0.000000000000
  25     -0.000000000000
  26     -0.241515770730
  27      0.000000000000
  28     -0.000000000000
  29      1.160703378914
  30     -0.000000000000
  31      0.000000000000
  32     -0.147140229977
  33      0.000000000000
  34      0.000000000000
  35     -0.000000000000
  36     -0.000000000000
  37      0.000000000000
  38     -0.000000000000
  39      0.000000000000
  40      0.761906112078
  41     -0.000000000000
  42     -0.000000000000
  43     -1.383694102410
  44      0.000000000000
  45      0.000000000000
  46      0.052753529265
  47     -0.000000000000
  48     -0.000000000000
  49     -0.000000000000
 Ene=   0.88155162538603E+00
 Spin= Alpha
 Occup=    0.000000
   1     -0.000000000000
   2      0.000000000000
   3     -0.000000000000
   4     -0.000000000000
   5      0.000000000000
   6      0.000000000000
   7      0.021260908834
   8      0.000000000000
   9     -0.000000000000
  10     -0.155170551126
  11     -0.000000000000
  12      0.000000000000
  13      0.497907492074
  14      0.000000000000
  15     -0.000000000000
  16     -0.769029341801
  17     -0.000000000000
  18      0.000000000000
  19      0.419710128582
  20      0.000000000000
  21      0.000000000000
  22      0.000000000000
  23     -0.000000000000
  24     -0.000000000000
  25     -0.000000000000
  26     -0.000000000000
  27     -0.230854959496
  28      0.000000000000
  29      0.000000000000
  30      1.149741706045
  31     -0.000000000000
  32     -0.000000000000
  33     -0.151828161047
  34     -0.000000000000
  35      0.000000000000
  36      0.000000000000
  37     -0.000000000000
  38      0.000000000000
  39     -0.000000000000
  40      0.000000000000
  41      0.750372611284
  42      0.000000000000
  43     -0.000000000000
  44     -1.363721664993
  45      0.000000000000
  46      0.000000000000
  47      0.053512199295
  48     -0.000000000000
  49      0.000000000000
 Ene=   0.88684221747601E+00
 Spin= Alpha
 Occup=    0.000000
   1      0.000000000000
   2      0.000000000000
   3      0.000000000000
   4      0.000000000000
   5      0.000000000000
   6      0.000000000000
   7      0.000000000000
   8      0.000000000000
   9      0.000000000000
  10      0.000000000000
  11      0.000000000000
  12      0.000000000000
  13      0.000000000000
  14      0.000000000000
  15      0.000000000000
  16      0.000000000000
  17      0.000000000000
  18      0.000000000000
  19      0.000000000000
  20      0.000000000000
  21      0.000000000000
  22      0.000000000000
  23      0.000000000000
  24      0.000000000000
  25      0.000000000000
  26      0.000000000000
  27      0.000000000000
  28      0.000000000000
  29      0.000000000000
  30      0.000000000000
  31      0.000000000000
  32      0.000000000000
  33      0.000000000000
  34      0.000000000000
  35      0.000000000000
  36      0.000000000000
  37      0.000000000000
  38      0.000000000000
  39      0.000000000000
  40      0.000000000000
  41      0.000000000000
  42      0.000000000000
  43      0.000000000000
  44      0.000000000000
  45      0.000000000000
  46      0.000000000000
  47      0.000000000000
  48      0.000000000000
  49      0.000000000000
 Ene=   0.89356759473964E+00
 Spin= Alpha
 Occup=    0.000000
   1      0.000000000000
   2      0.000000000000
   3      0.000000000000
   4      0.000000000000
   5      0.000000000000
   6      0.000000000000
   7      0.000000000000
   8      0.000000000000
   9      0.000000000000
  10      0.000000000000
  11      0.000000000000
  12      0.000000000000
  13      0.000000000000
  14      0.000000000000
  15      0.000000000000
  16      0.000000000000
  17      0.000000000000
  18      0.000000000000
  19      0.000000000000
  20      0.000000000000
  21      0.000000000000
  22      0.000000000000
  23      0.000000000000
  24      0.000000000000
  25      0.000000000000
  26      0.000000000000
  27      0.000000000000
  28      0.000000000000
  29      0.000000000000
  30      0.000000000000
  31      0.000000000000
  32      0.000000000000
  33      0.000000000000
  34      0.000000000000
  35      0.000000000000
  36      0.000000000000
  37      0.000000000000
  38      0.000000000000
  39      0.000000000000
  40      0.000000000000
  41      0.000000000000
  42      0.000000000000
  43      0.000000000000
  44      0.000000000000
  45      0.000000000000
  46      0.000000000000
  47      0.000000000000
  48      0.000000000000
  49      0.000000000000
 Ene=   0.91521994584823E+00
 Spin= Alpha
 Occup=    0.000000
   1     -0.017408615188
   2      0.132778798814
   3     -0.701046339021
   4      1.328496179385
   5      0.043445742035
   6     -0.000000000000
   7      0.000000000000
   8     -0.308068581576
   9      0.000000000000
  10     -0.000000000000
  11      0.991712754421
  12     -0.000000000000
  13      0.000000000000
  14     -1.436885043446
  15      0.000000000000
  16     -0.000000000000
  17      0.385256254063
  18     -0.000000000000
  19      0.000000000000
  20      0.018182893168
  21     -0.000000000000
  22      0.101489745854
  23     -0.429323483151
  24     -0.739993258649
  25      0.313026964868
  26      0.000000000000
  27     -0.000000000000
  28     -0.439110810424
  29     -0.000000000000
  30      0.000000000000
  31      0.063055719006
  32      0.000000000000
  33     -0.000000000000
  34      0.001875249425
  35     -0.000000000000
  36     -0.062264608351
  37      0.252610487931
  38     -0.053425090765
  39      0.689384946926
  40     -0.000000000000
  41      0.000000000000
  42     -0.416219661218
  43      0.000000000000
  44     -0.000000000000
  45     -0.051701926804
  46     -0.000000000000
  47      0.000000000000
  48      0.002616354948
  49     -0.000000000000
 Ene=   0.92364420351253E+00
 Spin= Alpha
 Occup=    0.000000
   1      0.000000000000
   2      0.000000000000
   3      0.000000000000
   4      0.000000000000
   5      0.000000000000
   6      0.000000000000
   7      0.000000000000
   8      0.000000000000
   9      0.000000000000
  10      0.000000000000
  11      0.000000000000
  12      0.000000000000
  13      0.000000000000
  14      0.000000000000
  15      0.000000000000
  16      0.000000000000
  17      0.000000000000
  18      0.000000000000
  19      0.000000000000
  20      0.000000000000
  21      0.000000000000
  22      0.000000000000
  23      0.000000000000
  24      0.000000000000
  25      0.000000000000
  26      0.000000000000
  27      0.000000000000
  28      0.000000000000
  29      0.000000000000
  30      0.000000000000
  31      0.000000000000
  32      0.000000000000
  33      0.000000000000
  34      0.000000000000
  35      0.000000000000
  36      0.000000000000
  37      0.000000000000
  38      0.000000000000
  39      0.000000000000
  40      0.000000000000
  41      0.000000000000
  42      0.000000000000
  43      0.000000000000
  44      0.000000000000
  45      0.000000000000
  46      0.000000000000
  47      0.000000000000
  48      0.000000000000
  49      0.000000000000
 Ene=   0.10531018022895E+01
 Spin= Alpha
 Occup=    0.000000
   1     -0.013198598718
   2      0.100302102632
   3     -0.292340263486
   4     -4.402008755880
   5      0.000331324794
   6     -0.000000000000
   7      0.000000000000
   8     -0.014505691295
   9      0.000000000000
  10     -0.000000000000
  11      0.067179300874
  12     -0.000000000000
  13     -0.000000000000
  14      2.653704366764
  15     -0.000000000000
  16      0.000000000000
  17     -0.541352117534
  18      0.000000000000
  19     -0.000000000000
  20     -0.011283100588
  21      0.000000000000
  22      0.108848883962
  23     -1.657380110644
  24     -2.889558899244
  25      0.366890993112
  26     -0.000000000000
  27      0.000000000000
  28      8.633561644359
  29      0.000000000000
  30     -0.000000000000
  31     -0.167783959928
  32      0.000000000000
  33      0.000000000000
  34      0.000538087639
  35      0.000000000000
  36      0.190855546654
  37     -1.814615337831
  38     10.797985451365
  39      0.098289942077
  40      0.000000000000
  41     -0.000000000000
  42      3.529381741379
  43     -0.000000000000
  44      0.000000000000
  45     -0.057465000348
  46     -0.000000000000
  47     -0.000000000000
  48      0.002525895136
  49     -0.000000000000
 Ene=   0.10618776810556E+01
 Spin= Alpha
 Occup=    0.000000
   1      0.000000000000
   2      0.000000000000
   3      0.000000000000
   4      0.000000000000
   5      0.000000000000
   6      0.000000000000
   7      0.000000000000
   8      0.000000000000
   9      0.000000000000
  10      0.000000000000
  11      0.000000000000
  12      0.000000000000
  13      0.000000000000
  14      0.000000000000
  15      0.000000000000
  16      0.000000000000
  17      0.000000000000
  18      0.000000000000
  19      0.000000000000
  20      0.000000000000
  21      0.000000000000
  22      0.000000000000
  23      0.000000000000
  24      0.000000000000
  25      0.000000000000
  26      0.000000000000
  27      0.000000000000
  28      0.000000000000
  29      0.000000000000
  30      0.000000000000
  31      0.000000000000
  32      0.000000000000
  33      0.000000000000
  34      0.000000000000
  35      0.000000000000
  36      0.000000000000
  37      0.000000000000
  38      0.000000000000
  39      0.000000000000
  40      0.000000000000
  41      0.000000000000
  42      0.000000000000
  43      0.000000000000
  44      0.000000000000
  45      0.000000000000
  46      0.000000000000
  47      0.000000000000
  48      0.000000000000
  49      0.000000000000
 Ene=   0.12529521315996E+01
 Spin= Alpha
 Occup=    0.000000
   1     -0.000149527966
   2      0.012346235805
   3     -0.663473478488
   4      2.409037912702
   5      0.038964088506
   6      0.000000000000
   7      0.000000000000
   8     -0.033322200837
   9     -0.000000000000
  10     -0.000000000000
  11      0.157833640908
  12      0.000000000000
  13      0.000000000000
  14     -1.765758898734
  15      0.000000000000
  16     -0.000000000000
  17      1.033089915224
  18     -0.000000000000