[Molden Format]
[Title]
generated by TRESC, real part1 of MOs of job SCN
 
[Atoms] AU
 S   1  16    0.0000000000    0.0000000000    1.9184736755
 C   2   6    0.0000000000    0.0000000000   -1.1567057569
 N   3   7    0.0000000000    0.0000000000   -3.3890492760
[GTO]
  1 0
 s  5 1.0
    10081.3659290000        0.0067330718
     1468.8676987000        0.0423201277
      327.2465016600        0.1866835343
       90.5285201140        0.4849802687
       27.5058308280        0.4517376429
 s  3 1.0
       46.3853988360       -0.0950589434
        5.0228188449        0.5843701906
        2.0306206045        0.5413909427
 s  1 1.0
        0.3606627882        1.0000000000
 s  1 1.0
        0.1371410729        1.0000000000
 p  5 1.0
      604.8788900300        0.0002353489
      140.0897861900        0.0017386166
       44.4994657800        0.0077865988
       16.4748871580        0.0220140918
        6.5229645048        0.0378945448
 p  5 1.0
      270.9504306400        0.0092081513
       62.5377853170        0.0653131413
       19.3546142200        0.2445470601
        6.7163477485        0.4820783852
        2.4098646724        0.3917477785
 p  1 1.0
        0.6191509478        1.0000000000
 p  1 1.0
        0.1701457548        1.0000000000
 d  1 1.0
        0.5500000000        1.0000000000
 
  2 0
 s  5 1.0
     1231.7975026000        0.0058423196
      185.5974766200        0.0415113222
       42.0875016200        0.1832849990
       11.6300369400        0.4683526005
        3.5840894779        0.4430601820
 s  1 1.0
        0.4029351893        1.0000000000
 s  1 1.0
        0.1309419451        1.0000000000
 p  3 1.0
        9.4821246358        0.0381720490
        2.0121097169        0.2099973699
        0.5481253660        0.5104097902
 p  1 1.0
        0.1527756940        1.0000000000
 d  1 1.0
        0.8000000000        1.0000000000
 
  3 0
 s  5 1.0
     1706.0150550000        0.0058639453
      255.9938356800        0.0413450288
       58.1565771970        0.1820914202
       16.1430707430        0.4678591214
        4.9963209539        0.4434151324
 s  1 1.0
        0.5882550288        1.0000000000
 s  1 1.0
        0.1877013255        1.0000000000
 p  3 1.0
       13.5897862110        0.0400190920
        2.9274822154        0.2175789499
        0.7994670210        0.5117738303
 p  1 1.0
        0.2195247995        1.0000000000
 d  1 1.0
        1.0000000000        1.0000000000
 
[5D]
[7F]
[9G]
[MO]
 Ene=  -0.88921075679281E+02
 Spin= Alpha
 Occup=    1.000000
   1      0.993141450457
   2      0.025755188492
   3     -0.011655777469
   4      0.003733252066
   5      0.000778295121
   6      0.000000000000
   7      0.000000000000
   8     -0.001055588636
   9     -0.000000000000
  10     -0.000000000000
  11      0.001035811258
  12      0.000000000000
  13      0.000000000000
  14      0.000750348785
  15     -0.000000000000
  16      0.000000000000
  17     -0.000537542089
  18      0.000000000000
  19      0.000000000000
  20     -0.000000530378
  21      0.000000000000
  22     -0.000151602951
  23     -0.000279549853
  24     -0.004364610466
  25      0.000441372992
  26      0.000000000000
  27     -0.000000000000
  28      0.006110992935
  29      0.000000000000
  30      0.000000000000
  31      0.001209491446
  32      0.000000000000
  33     -0.000000000000
  34      0.000000017321
  35      0.000000000000
  36      0.000140186246
  37     -0.001633745853
  38      0.008234351874
  39     -0.000537315131
  40      0.000000000000
  41      0.000000000000
  42      0.002710258469
  43      0.000000000000
  44     -0.000000000000
  45     -0.000129706021
  46     -0.000000000000
  47     -0.000000000000
  48      0.000000002328
  49     -0.000000000000
 Ene=  -0.88916113851734E+02
 Spin= Alpha
 Occup=    0.000000
   1      0.000000000000
   2      0.000000000000
   3      0.000000000000
   4      0.000000000000
   5      0.000000000000
   6      0.000000000000
   7      0.000000000000
   8      0.000000000000
   9      0.000000000000
  10      0.000000000000
  11      0.000000000000
  12      0.000000000000
  13      0.000000000000
  14      0.000000000000
  15      0.000000000000
  16      0.000000000000
  17      0.000000000000
  18      0.000000000000
  19      0.000000000000
  20      0.000000000000
  21      0.000000000000
  22      0.000000000000
  23      0.000000000000
  24      0.000000000000
  25      0.000000000000
  26      0.000000000000
  27      0.000000000000
  28      0.000000000000
  29      0.000000000000
  30      0.000000000000
  31      0.000000000000
  32      0.000000000000
  33      0.000000000000
  34      0.000000000000
  35      0.000000000000
  36      0.000000000000
  37      0.000000000000
  38      0.000000000000
  39      0.000000000000
  40      0.000000000000
  41      0.000000000000
  42      0.000000000000
  43      0.000000000000
  44      0.000000000000
  45      0.000000000000
  46      0.000000000000
  47      0.000000000000
  48      0.000000000000
  49      0.000000000000
 Ene=  -0.14439500942598E+02
 Spin= Alpha
 Occup=    1.000000
   1      0.000053635179
   2     -0.000459449169
   3      0.002155487744
   4      0.011903334747
   5     -0.000823728503
   6     -0.000000000000
   7     -0.000000000000
   8      0.001034539700
   9      0.000000000000
  10      0.000000000000
  11     -0.001190927651
  12     -0.000000000000
  13     -0.000000000000
  14     -0.006795192741
  15      0.000000000000
  16      0.000000000000
  17      0.001015776614
  18      0.000000000000
  19      0.000000000000
  20      0.000000116058
  21      0.000000000000
  22      0.000331064233
  23      0.002001732899
  24      0.020137893306
  25      0.003442501906
  26      0.000000000000
  27      0.000000000000
  28     -0.031421182228
  29     -0.000000000000
  30      0.000000000000
  31     -0.002901743511
  32      0.000000000000
  33      0.000000000000
  34     -0.000007644135
  35     -0.000000000000
  36      0.988583496441
  37      0.045641783158
  38     -0.055634446688
  39      0.005131453152
  40      0.000000000000
  41     -0.000000000000
  42     -0.015277828021
  43     -0.000000000000
  44      0.000000000000
  45      0.001218198925
  46      0.000000000000
  47     -0.000000000000
  48      0.000122749950
  49     -0.000000000000
 Ene=  -0.14430813154178E+02
 Spin= Alpha
 Occup=    0.000000
   1      0.000000000000
   2      0.000000000000
   3      0.000000000000
   4      0.000000000000
   5      0.000000000000
   6      0.000000000000
   7      0.000000000000
   8      0.000000000000
   9      0.000000000000
  10      0.000000000000
  11      0.000000000000
  12      0.000000000000
  13      0.000000000000
  14      0.000000000000
  15      0.000000000000
  16      0.000000000000
  17      0.000000000000
  18      0.000000000000
  19      0.000000000000
  20      0.000000000000
  21      0.000000000000
  22      0.000000000000
  23      0.000000000000
  24      0.000000000000
  25      0.000000000000
  26      0.000000000000
  27      0.000000000000
  28      0.000000000000
  29      0.000000000000
  30      0.000000000000
  31      0.000000000000
  32      0.000000000000
  33      0.000000000000
  34      0.000000000000
  35      0.000000000000
  36      0.000000000000
  37      0.000000000000
  38      0.000000000000
  39      0.000000000000
  40      0.000000000000
  41      0.000000000000
  42      0.000000000000
  43      0.000000000000
  44      0.000000000000
  45      0.000000000000
  46      0.000000000000
  47      0.000000000000
  48      0.000000000000
  49      0.000000000000
 Ene=  -0.10327553754152E+02
 Spin= Alpha
 Occup=   -0.000000
   1      0.000000000000
   2      0.000000000000
   3      0.000000000000
   4      0.000000000000
   5      0.000000000000
   6      0.000000000000
   7      0.000000000000
   8      0.000000000000
   9      0.000000000000
  10      0.000000000000
  11      0.000000000000
  12      0.000000000000
  13      0.000000000000
  14      0.000000000000
  15      0.000000000000
  16      0.000000000000
  17      0.000000000000
  18      0.000000000000
  19      0.000000000000
  20      0.000000000000
  21      0.000000000000
  22      0.000000000000
  23      0.000000000000
  24      0.000000000000
  25      0.000000000000
  26      0.000000000000
  27      0.000000000000
  28      0.000000000000
  29      0.000000000000
  30      0.000000000000
  31      0.000000000000
  32      0.000000000000
  33      0.000000000000
  34      0.000000000000
  35      0.000000000000
  36      0.000000000000
  37      0.000000000000
  38      0.000000000000
  39      0.000000000000
  40      0.000000000000
  41      0.000000000000
  42      0.000000000000
  43      0.000000000000
  44      0.000000000000
  45      0.000000000000
  46      0.000000000000
  47      0.000000000000
  48      0.000000000000
  49      0.000000000000
 Ene=  -0.10324424222173E+02
 Spin= Alpha
 Occup=    1.000000
   1     -0.000086547033
   2      0.000705619909
   3     -0.001690866642
   4      0.023064018666
   5      0.002322062702
   6     -0.000000000000
   7     -0.000000000000
   8     -0.002937067479
   9      0.000000000000
  10      0.000000000000
  11      0.002737254992
  12      0.000000000000
  13     -0.000000000000
  14     -0.011545259928
  15     -0.000000000000
  16      0.000000000000
  17     -0.002219849544
  18     -0.000000000000
  19      0.000000000000
  20      0.000000787657
  21      0.000000000000
  22      0.988341651222
  23      0.049325770468
  24     -0.003963067408
  25     -0.001413694216
  26      0.000000000000
  27      0.000000000000
  28     -0.038813695858
  29      0.000000000000
  30     -0.000000000000
  31      0.004379310988
  32      0.000000000000
  33      0.000000000000
  34     -0.000019724364
  35      0.000000000000
  36     -0.000532639114
  37      0.000737365363
  38     -0.041829417994
  39     -0.002170566625
  40      0.000000000000
  41     -0.000000000000
  42     -0.017342322185
  43      0.000000000000
  44      0.000000000000
  45     -0.001345084864
  46      0.000000000000
  47      0.000000000000
  48      0.000003309444
  49     -0.000000000000
 Ene=  -0.80547113548772E+01
 Spin= Alpha
 Occup=    1.000000
   1      0.310084104616
   2     -1.018330228913
   3     -0.055900055406
   4      0.014036257456
   5      0.000231511441
   6      0.000000000000
   7     -0.000000000000
   8      0.007461895204
   9      0.000000000000
  10     -0.000000000000
  11      0.002787721107
  12      0.000000000000
  13     -0.000000000000
  14      0.002532103578
  15     -0.000000000000
  16      0.000000000000
  17     -0.001538359140
  18      0.000000000000
  19      0.000000000000
  20     -0.000490358835
  21      0.000000000000
  22     -0.000152674400
  23     -0.000879679742
  24     -0.012146037456
  25      0.001576091885
  26     -0.000000000000
  27      0.000000000000
  28      0.017250670291
  29      0.000000000000
  30      0.000000000000
  31      0.002100902367
  32     -0.000000000000
  33     -0.000000000000
  34      0.000013658659
  35      0.000000000000
  36      0.000294927214
  37     -0.003611790965
  38      0.022580550265
  39     -0.000856139852
  40     -0.000000000000
  41     -0.000000000000
  42      0.007310978939
  43     -0.000000000000
  44     -0.000000000000
  45     -0.000089556426
  46      0.000000000000
  47     -0.000000000000
  48     -0.000001069273
  49     -0.000000000000
 Ene=  -0.80500358195410E+01
 Spin= Alpha
 Occup=    0.000000
   1      0.000000000000
   2      0.000000000000
   3      0.000000000000
   4      0.000000000000
   5      0.000000000000
   6      0.000000000000
   7      0.000000000000
   8      0.000000000000
   9      0.000000000000
  10      0.000000000000
  11      0.000000000000
  12      0.000000000000
  13      0.000000000000
  14      0.000000000000
  15      0.000000000000
  16      0.000000000000
  17      0.000000000000
  18      0.000000000000
  19      0.000000000000
  20      0.000000000000
  21      0.000000000000
  22      0.000000000000
  23      0.000000000000
  24      0.000000000000
  25      0.000000000000
  26      0.000000000000
  27      0.000000000000
  28      0.000000000000
  29      0.000000000000
  30      0.000000000000
  31      0.000000000000
  32      0.000000000000
  33      0.000000000000
  34      0.000000000000
  35      0.000000000000
  36      0.000000000000
  37      0.000000000000
  38      0.000000000000
  39      0.000000000000
  40      0.000000000000
  41      0.000000000000
  42      0.000000000000
  43      0.000000000000
  44      0.000000000000
  45      0.000000000000
  46      0.000000000000
  47      0.000000000000
  48      0.000000000000
  49      0.000000000000
 Ene=  -0.60119513297301E+01
 Spin= Alpha
 Occup=    1.000000
   1      0.000000000000
   2     -0.000000000000
   3      0.000000000000
   4     -0.000000000000
   5      0.000000000000
   6      0.001089389417
   7     -0.000000000000
   8     -0.000000000001
   9     -0.982402110348
  10      0.000000000000
  11     -0.000000000000
  12     -0.051610003471
  13      0.000000000000
  14      0.000000000000
  15      0.008889008936
  16     -0.000000000000
  17      0.000000000000
  18      0.000364875100
  19     -0.000000000000
  20      0.000000000000
  21     -0.000000000000
  22      0.000000000000
  23     -0.000000000000
  24      0.000000000000
  25     -0.000000000000
  26      0.000289647988
  27     -0.000000000000
  28      0.000000000000
  29     -0.002017831346
  30      0.000000000000
  31     -0.000000000000
  32      0.000652000339
  33     -0.000000000000
  34     -0.000000000000
  35     -0.000000000000
  36      0.000000000000
  37     -0.000000000000
  38      0.000000000000
  39      0.000000000000
  40     -0.000012388544
  41      0.000000000000
  42      0.000000000000
  43      0.000878050733
  44     -0.000000000000
  45      0.000000000000
  46      0.000271309330
  47     -0.000000000000
  48      0.000000000000
  49      0.000000000000
 Ene=  -0.60054065791746E+01
 Spin= Alpha
 Occup=    1.000000
   1      0.002712012788
   2     -0.009721530352
   3      0.003124369698
   4     -0.000324231311
   5      0.001045347672
   6     -0.000000000000
   7     -0.000000000000
   8     -0.981783927960
   9      0.000000000001
  10     -0.000000000000
  11     -0.053545807203
  12      0.000000000000
  13     -0.000000000000
  14      0.008274468717
  15     -0.000000000000
  16      0.000000000000
  17      0.002091549819
  18     -0.000000000000
  19     -0.000000000000
  20     -0.000006310207
  21      0.000000000000
  22      0.000139906005
  23     -0.000471640687
  24      0.007459915803
  25     -0.001356466616
  26     -0.000000000000
  27     -0.000000000000
  28     -0.006311645735
  29      0.000000000000
  30     -0.000000000000
  31     -0.002625605995
  32     -0.000000000000
  33      0.000000000000
  34      0.000004691798
  35      0.000000000000
  36     -0.000192106772
  37      0.002183638973
  38     -0.009656167667
  39      0.000876611100
  40     -0.000000000000
  41      0.000000000000
  42     -0.002981058916
  43     -0.000000000000
  44      0.000000000000
  45      0.000431628695
  46     -0.000000000000
  47      0.000000000000
  48     -0.000000515027
  49     -0.000000000000
 Ene=  -0.60025978579960E+01
 Spin= Alpha
 Occup=   -0.000000
   1      0.000000000000
   2      0.000000000000
   3      0.000000000000
   4      0.000000000000
   5      0.000000000000
   6      0.000000000000
   7      0.000000000000
   8      0.000000000000
   9      0.000000000000
  10      0.000000000000
  11      0.000000000000
  12      0.000000000000
  13      0.000000000000
  14      0.000000000000
  15      0.000000000000
  16      0.000000000000
  17      0.000000000000
  18      0.000000000000
  19      0.000000000000
  20      0.000000000000
  21      0.000000000000
  22      0.000000000000
  23      0.000000000000
  24      0.000000000000
  25      0.000000000000
  26      0.000000000000
  27      0.000000000000
  28      0.000000000000
  29      0.000000000000
  30      0.000000000000
  31      0.000000000000
  32      0.000000000000
  33      0.000000000000
  34      0.000000000000
  35      0.000000000000
  36      0.000000000000
  37      0.000000000000
  38      0.000000000000
  39      0.000000000000
  40      0.000000000000
  41      0.000000000000
  42      0.000000000000
  43      0.000000000000
  44      0.000000000000
  45      0.000000000000
  46      0.000000000000
  47      0.000000000000
  48      0.000000000000
  49      0.000000000000
 Ene=  -0.59959619204500E+01
 Spin= Alpha
 Occup=    1.000000
   1     -0.000000000000
   2      0.000000000000
   3     -0.000000000000
   4      0.000000000000
   5      0.000000000000
   6      0.000000000000
   7      0.000369101977
   8      0.000000000000
   9     -0.000000000000
  10     -0.982066789097
  11      0.000000000000
  12     -0.000000000000
  13     -0.050705760174
  14     -0.000000000000
  15      0.000000000000
  16      0.008727963529
  17      0.000000000000
  18      0.000000000000
  19      0.000367084191
  20     -0.000000000000
  21      0.000000000000
  22      0.000000000000
  23      0.000000000000
  24      0.000000000000
  25      0.000000000000
  26      0.000000000000
  27      0.000276406096
  28     -0.000000000000
  29     -0.000000000000
  30     -0.001983158337
  31     -0.000000000000
  32     -0.000000000000
  33      0.000618188995
  34      0.000000000000
  35      0.000000000000
  36     -0.000000000000
  37      0.000000000000
  38     -0.000000000000
  39     -0.000000000000
  40      0.000000000000
  41     -0.000015294190
  42     -0.000000000000
  43     -0.000000000000
  44      0.000860978367
  45     -0.000000000000
  46      0.000000000000
  47      0.000260566725
  48      0.000000000000
  49     -0.000000000000
 Ene=  -0.59956121223292E+01
 Spin= Alpha
 Occup=   -0.000000
   1      0.000000000000
   2      0.000000000000
   3      0.000000000000
   4      0.000000000000
   5      0.000000000000
   6      0.000000000000
   7      0.000000000000
   8      0.000000000000
   9      0.000000000000
  10      0.000000000000
  11      0.000000000000
  12      0.000000000000
  13      0.000000000000
  14      0.000000000000
  15      0.000000000000
  16      0.000000000000
  17      0.000000000000
  18      0.000000000000
  19      0.000000000000
  20      0.000000000000
  21      0.000000000000
  22      0.000000000000
  23      0.000000000000
  24      0.000000000000
  25      0.000000000000
  26      0.000000000000
  27      0.000000000000
  28      0.000000000000
  29      0.000000000000
  30      0.000000000000
  31      0.000000000000
  32      0.000000000000
  33      0.000000000000
  34      0.000000000000
  35      0.000000000000
  36      0.000000000000
  37      0.000000000000
  38      0.000000000000
  39      0.000000000000
  40      0.000000000000
  41      0.000000000000
  42      0.000000000000
  43      0.000000000000
  44      0.000000000000
  45      0.000000000000
  46      0.000000000000
  47      0.000000000000
  48      0.000000000000
  49      0.000000000000
 Ene=  -0.59932229066276E+01
 Spin= Alpha
 Occup=    0.000000
   1      0.000000000000
   2      0.000000000000
   3      0.000000000000
   4      0.000000000000
   5      0.000000000000
   6      0.000000000000
   7      0.000000000000
   8      0.000000000000
   9      0.000000000000
  10      0.000000000000
  11      0.000000000000
  12      0.000000000000
  13      0.000000000000
  14      0.000000000000
  15      0.000000000000
  16      0.000000000000
  17      0.000000000000
  18      0.000000000000
  19      0.000000000000
  20      0.000000000000
  21      0.000000000000
  22      0.000000000000
  23      0.000000000000
  24      0.000000000000
  25      0.000000000000
  26      0.000000000000
  27      0.000000000000
  28      0.000000000000
  29      0.000000000000
  30      0.000000000000
  31      0.000000000000
  32      0.000000000000
  33      0.000000000000
  34      0.000000000000
  35      0.000000000000
  36      0.000000000000
  37      0.000000000000
  38      0.000000000000
  39      0.000000000000
  40      0.000000000000
  41      0.000000000000
  42      0.000000000000
  43      0.000000000000
  44      0.000000000000
  45      0.000000000000
  46      0.000000000000
  47      0.000000000000
  48      0.000000000000
  49      0.000000000000
 Ene=  -0.96896835255684E+00
 Spin= Alpha
 Occup=    1.000000
   1      0.016393098204
   2     -0.099087812982
   3      0.134745368966
   4      0.064757310421
   5      0.001137473510
   6     -0.000000000000
   7     -0.000000000000
   8      0.024298400669
   9     -0.000000000000
  10     -0.000000000000
  11     -0.039649278242
  12      0.000000000000
  13      0.000000000000
  14     -0.034277308826
  15      0.000000000000
  16     -0.000000000000
  17      0.014455090643
  18     -0.000000000000
  19      0.000000000000
  20      0.003371539452
  21     -0.000000000000
  22     -0.198055163795
  23      0.384812547493
  24      0.060085763477
  25     -0.170341763359
  26      0.000000000000
  27      0.000000000000
  28     -0.029998626874
  29      0.000000000000
  30      0.000000000000
  31      0.027315997936
  32     -0.000000000000
  33     -0.000000000000
  34      0.000759121262
  35      0.000000000000
  36     -0.227589087180
  37      0.451312312180
  38      0.156213800756
  39      0.193356643476
  40      0.000000000000
  41     -0.000000000000
  42      0.025472804137
  43      0.000000000000
  44     -0.000000000000
  45      0.016043495444
  46     -0.000000000000
  47      0.000000000000
  48      0.004198632248
  49     -0.000000000000
 Ene=  -0.95192378012446E+00
 Spin= Alpha
 Occup=   -0.000000
   1      0.000000000000
   2      0.000000000000
   3      0.000000000000
   4      0.000000000000
   5      0.000000000000
   6      0.000000000000
   7      0.000000000000
   8      0.000000000000
   9      0.000000000000
  10      0.000000000000
  11      0.000000000000
  12      0.000000000000
  13      0.000000000000
  14      0.000000000000
  15      0.000000000000
  16      0.000000000000
  17      0.000000000000
  18      0.000000000000
  19      0.000000000000
  20      0.000000000000
  21      0.000000000000
  22      0.000000000000
  23      0.000000000000
  24      0.000000000000
  25      0.000000000000
  26      0.000000000000
  27      0.000000000000
  28      0.000000000000
  29      0.000000000000
  30      0.000000000000
  31      0.000000000000
  32      0.000000000000
  33      0.000000000000
  34      0.000000000000
  35      0.000000000000
  36      0.000000000000
  37      0.000000000000
  38      0.000000000000
  39      0.000000000000
  40      0.000000000000
  41      0.000000000000
  42      0.000000000000
  43      0.000000000000
  44      0.000000000000
  45      0.000000000000
  46      0.000000000000
  47      0.000000000000
  48      0.000000000000
  49      0.000000000000
 Ene=  -0.84453548976285E+00
 Spin= Alpha
 Occup=    1.000000
   1      0.071589548996
   2     -0.437005159242
   3      0.615573924549
   4      0.251293565859
   5      0.003970980801
   6     -0.000000000000
   7      0.000000000000
   8      0.063642843683
   9      0.000000000000
  10     -0.000000000000
  11     -0.110626248099
  12     -0.000000000000
  13      0.000000000000
  14     -0.064682488327
  15     -0.000000000000
  16      0.000000000000
  17      0.029618134661
  18     -0.000000000000
  19      0.000000000000
  20      0.016231510634
  21     -0.000000000000
  22     -0.066641875824
  23      0.141049242380
  24      0.003715200385
  25      0.269058246281
  26      0.000000000000
  27     -0.000000000000
  28      0.053774905085
  29      0.000000000000
  30     -0.000000000000
  31      0.012325547261
  32     -0.000000000000
  33     -0.000000000000
  34      0.000010946780
  35      0.000000000000
  36      0.093121612102
  37     -0.194232693819
  38     -0.046810083846
  39     -0.065547709155
  40     -0.000000000000
  41      0.000000000000
  42      0.002750402103
  43     -0.000000000000
  44      0.000000000000
  45     -0.005095326075
  46     -0.000000000000
  47     -0.000000000000
  48     -0.001711109033
  49      0.000000000000
 Ene=  -0.81831294029549E+00
 Spin= Alpha
 Occup=    0.000000
   1      0.000000000000
   2      0.000000000000
   3      0.000000000000
   4      0.000000000000
   5      0.000000000000
   6      0.000000000000
   7      0.000000000000
   8      0.000000000000
   9      0.000000000000
  10      0.000000000000
  11      0.000000000000
  12      0.000000000000
  13      0.000000000000
  14      0.000000000000
  15      0.000000000000
  16      0.000000000000
  17      0.000000000000
  18      0.000000000000
  19      0.000000000000
  20      0.000000000000
  21      0.000000000000
  22      0.000000000000
  23      0.000000000000
  24      0.000000000000
  25      0.000000000000
  26      0.000000000000
  27      0.000000000000
  28      0.000000000000
  29      0.000000000000
  30      0.000000000000
  31      0.000000000000
  32      0.000000000000
  33      0.000000000000
  34      0.000000000000
  35      0.000000000000
  36      0.000000000000
  37      0.000000000000
  38      0.000000000000
  39      0.000000000000
  40      0.000000000000
  41      0.000000000000
  42      0.000000000000
  43      0.000000000000
  44      0.000000000000
  45      0.000000000000
  46      0.000000000000
  47      0.000000000000
  48      0.000000000000
  49      0.000000000000
 Ene=  -0.52257780654081E+00
 Spin= Alpha
 Occup=    1.000000
   1      0.043878491323
   2     -0.275986951879
   3      0.387275242381
   4      0.395254475036
   5     -0.016591927872
   6      0.000000000000
   7      0.000000000000
   8     -0.168261269590
   9      0.000000000000
  10     -0.000000000000
  11      0.318886299604
  12     -0.000000000000
  13      0.000000000000
  14      0.251814206330
  15     -0.000000000000
  16      0.000000000000
  17     -0.058247362266
  18     -0.000000000000
  19      0.000000000000
  20      0.015667011565
  21     -0.000000000000
  22      0.146645997540
  23     -0.325746688221
  24     -0.135062162038
  25     -0.219383320786
  26     -0.000000000000
  27     -0.000000000000
  28     -0.152928580260
  29     -0.000000000000
  30     -0.000000000000
  31     -0.010272232385
  32     -0.000000000000
  33      0.000000000000
  34     -0.000053612630
  35     -0.000000000000
  36     -0.082357155003
  37      0.185864161907
  38      0.048511240300
  39     -0.063182888993
  40     -0.000000000000
  41     -0.000000000000
  42     -0.064412945172
  43     -0.000000000000
  44     -0.000000000000
  45     -0.005183343867
  46     -0.000000000000
  47      0.000000000000
  48      0.001637091408
  49     -0.000000000000
 Ene=  -0.50689264393133E+00
 Spin= Alpha
 Occup=    0.000000
   1      0.000000000000
   2      0.000000000000
   3      0.000000000000
   4      0.000000000000
   5      0.000000000000
   6      0.000000000000
   7      0.000000000000
   8      0.000000000000
   9      0.000000000000
  10      0.000000000000
  11      0.000000000000
  12      0.000000000000
  13      0.000000000000
  14      0.000000000000
  15      0.000000000000
  16      0.000000000000
  17      0.000000000000
  18      0.000000000000
  19      0.000000000000
  20      0.000000000000
  21      0.000000000000
  22      0.000000000000
  23      0.000000000000
  24      0.000000000000
  25      0.000000000000
  26      0.000000000000
  27      0.000000000000
  28      0.000000000000
  29      0.000000000000
  30      0.000000000000
  31      0.000000000000
  32      0.000000000000
  33      0.000000000000
  34      0.000000000000
  35      0.000000000000
  36      0.000000000000
  37      0.000000000000
  38      0.000000000000
  39      0.000000000000
  40      0.000000000000
  41      0.000000000000
  42      0.000000000000
  43      0.000000000000
  44      0.000000000000
  45      0.000000000000
  46      0.000000000000
  47      0.000000000000
  48      0.000000000000
  49      0.000000000000
 Ene=  -0.44732540160850E+00
 Spin= Alpha
 Occup=    1.000000
   1      0.000000000000
   2     -0.000000000000
   3      0.000000000000
   4      0.000000000000
   5     -0.000000000000
   6     -0.011674673579
   7     -0.000000000000
   8     -0.000000000000
   9     -0.138025051391
  10     -0.000000000000
  11      0.000000000000
  12      0.267047557868
  13      0.000000000000
  14      0.000000000000
  15      0.294448784246
  16      0.000000000000
  17     -0.000000000000
  18     -0.048055675726
  19     -0.000000000000
  20      0.000000000000
  21      0.000000000000
  22      0.000000000000
  23     -0.000000000000
  24      0.000000000000
  25     -0.000000000000
  26      0.373441904006
  27      0.000000000000
  28     -0.000000000000
  29      0.192574208292
  30      0.000000000000
  31     -0.000000000000
  32     -0.005685051380
  33     -0.000000000000
  34      0.000000000000
  35      0.000000000000
  36      0.000000000000
  37     -0.000000000000
  38     -0.000000000000
  39      0.000000000000
  40      0.346149045518
  41      0.000000000000
  42     -0.000000000000
  43      0.180562756614
  44      0.000000000000
  45     -0.000000000000
  46      0.027763161797
  47      0.000000000000
  48      0.000000000000
  49     -0.000000000000
 Ene=  -0.42771871125887E+00
 Spin= Alpha
 Occup=    1.000000
   1      0.000000000000
   2     -0.000000000000
   3      0.000000000000
   4      0.000000000000
   5     -0.000000000000
   6      0.000000000000
   7     -0.011814995128
   8     -0.000000000000
   9      0.000000000000
  10     -0.117073182938
  11      0.000000000000
  12     -0.000000000000
  13      0.227113784346
  14      0.000000000000
  15     -0.000000000000
  16      0.249795956118
  17     -0.000000000000
  18      0.000000000000