[Molden Format]
[Title]
generated by TRESC, real part1 of MOs of job CO3
 
[Atoms] AU
 C   1   6    0.8683455824    5.9117408867    0.3946624736
 O   2   8    3.0759666602    6.0084693058    0.4150267281
 O   3   8   -1.2068755866    6.9101599458    1.3549785802
 O   4   8   -1.0934266921    4.7345528503   -0.6041387501
[GTO]
  1 0
 s  5 1.0
     1238.4016938000        0.0059599745
      186.2900499200        0.0422621111
       42.2511763500        0.1866575214
       11.6765579300        0.4675815865
        3.5930506500        0.4422897287
 s  1 1.0
        0.4024514700        1.0000000000
 s  1 1.0
        0.1309018300        1.0000000000
 p  3 1.0
        9.4680970600        0.0570294585
        2.0103545100        0.3130471495
        0.5477100500        0.7605135301
 p  1 1.0
        0.1526861400        1.0000000000
 d  1 1.0
        0.8000000000        1.0000000000
 
  2 0
 s  5 1.0
     2266.1767785000        0.0060711540
      340.8701019100        0.0417308970
       77.3631351700        0.1850777598
       21.4796449400        0.4668774046
        6.6589433100        0.4435718061
 s  1 1.0
        0.8097597600        1.0000000000
 s  1 1.0
        0.2553077200        1.0000000000
 p  3 1.0
       17.7215043200        0.0628680198
        3.8635505400        0.3334973703
        1.0480920900        0.7412421661
 p  1 1.0
        0.2764154400        1.0000000000
 d  1 1.0
        1.2000000000        1.0000000000
 
  3 0
 s  5 1.0
     2266.1767785000        0.0060711540
      340.8701019100        0.0417308970
       77.3631351700        0.1850777598
       21.4796449400        0.4668774046
        6.6589433100        0.4435718061
 s  1 1.0
        0.8097597600        1.0000000000
 s  1 1.0
        0.2553077200        1.0000000000
 p  3 1.0
       17.7215043200        0.0628680198
        3.8635505400        0.3334973703
        1.0480920900        0.7412421661
 p  1 1.0
        0.2764154400        1.0000000000
 d  1 1.0
        1.2000000000        1.0000000000
 
  4 0
 s  5 1.0
     2266.1767785000        0.0060711540
      340.8701019100        0.0417308970
       77.3631351700        0.1850777598
       21.4796449400        0.4668774046
        6.6589433100        0.4435718061
 s  1 1.0
        0.8097597600        1.0000000000
 s  1 1.0
        0.2553077200        1.0000000000
 p  3 1.0
       17.7215043200        0.0628680198
        3.8635505400        0.3334973703
        1.0480920900        0.7412421661
 p  1 1.0
        0.2764154400        1.0000000000
 d  1 1.0
        1.2000000000        1.0000000000
 
[5D]
[7F]
[9G]
[MO]
 Ene=  -0.19825570246915E+02
 Spin= Alpha
 Occup=    0.000000
   1      0.000000000000
   2      0.000000000000
   3      0.000000000000
   4      0.000000000000
   5      0.000000000000
   6      0.000000000000
   7      0.000000000000
   8      0.000000000000
   9      0.000000000000
  10      0.000000000000
  11      0.000000000000
  12      0.000000000000
  13      0.000000000000
  14      0.000000000000
  15      0.000000000000
  16      0.000000000000
  17      0.000000000000
  18      0.000000000000
  19      0.000000000000
  20      0.000000000000
  21      0.000000000000
  22      0.000000000000
  23      0.000000000000
  24      0.000000000000
  25      0.000000000000
  26      0.000000000000
  27      0.000000000000
  28      0.000000000000
  29      0.000000000000
  30      0.000000000000
  31      0.000000000000
  32      0.000000000000
  33      0.000000000000
  34      0.000000000000
  35      0.000000000000
  36      0.000000000000
  37      0.000000000000
  38      0.000000000000
  39      0.000000000000
  40      0.000000000000
  41      0.000000000000
  42      0.000000000000
  43      0.000000000000
  44      0.000000000000
  45      0.000000000000
  46      0.000000000000
  47      0.000000000000
  48      0.000000000000
  49      0.000000000000
  50      0.000000000000
  51      0.000000000000
  52      0.000000000000
  53      0.000000000000
  54      0.000000000000
  55      0.000000000000
  56      0.000000000000
 Ene=  -0.19825570246915E+02
 Spin= Alpha
 Occup=    1.000000
   1      0.000338627930
   2      0.001284438939
   3      0.015837267773
   4     -0.000876865174
   5      0.000068100528
   6      0.000087754287
   7     -0.017166329851
   8      0.000421415238
   9      0.000898449814
  10      0.000709438856
  11      0.000247658798
  12      0.000035361040
  13     -0.001250290621
  14      0.000192798669
  15     -0.000428050927
  16     -0.000696802668
  17      0.006903465734
  18     -0.000372878624
  19      0.000014695391
  20      0.000024540850
  21     -0.000564436701
  22     -0.000492401977
  23     -0.000426360581
  24     -0.000120230783
  25      0.000117305913
  26      0.000098099487
  27      0.000178876436
  28      0.000146142401
  29      0.823301781358
  30      0.037477330163
  31     -0.029562277776
  32      0.001717931231
  33     -0.001658559702
  34     -0.001542907543
  35     -0.005903853307
  36      0.003227282723
  37      0.003079786403
  38      0.000045292903
  39      0.000058480229
  40      0.000014502261
  41     -0.000085341837
  42      0.000059912908
  43      0.546311933158
  44      0.025175104870
  45     -0.020478567393
  46      0.000960887746
  47      0.001404008086
  48      0.001232982290
  49     -0.004261333834
  50     -0.001992027850
  51     -0.001661644954
  52      0.000090519032
  53     -0.000148523212
  54      0.000211198788
  55     -0.000191641470
  56     -0.000170420631
 Ene=  -0.19825367666280E+02
 Spin= Alpha
 Occup=   -0.000000
   1      0.000000000000
   2      0.000000000000
   3      0.000000000000
   4      0.000000000000
   5      0.000000000000
   6      0.000000000000
   7      0.000000000000
   8      0.000000000000
   9      0.000000000000
  10      0.000000000000
  11      0.000000000000
  12      0.000000000000
  13      0.000000000000
  14      0.000000000000
  15      0.000000000000
  16      0.000000000000
  17      0.000000000000
  18      0.000000000000
  19      0.000000000000
  20      0.000000000000
  21      0.000000000000
  22      0.000000000000
  23      0.000000000000
  24      0.000000000000
  25      0.000000000000
  26      0.000000000000
  27      0.000000000000
  28      0.000000000000
  29      0.000000000000
  30      0.000000000000
  31      0.000000000000
  32      0.000000000000
  33      0.000000000000
  34      0.000000000000
  35      0.000000000000
  36      0.000000000000
  37      0.000000000000
  38      0.000000000000
  39      0.000000000000
  40      0.000000000000
  41      0.000000000000
  42      0.000000000000
  43      0.000000000000
  44      0.000000000000
  45      0.000000000000
  46      0.000000000000
  47      0.000000000000
  48      0.000000000000
  49      0.000000000000
  50      0.000000000000
  51      0.000000000000
  52      0.000000000000
  53      0.000000000000
  54      0.000000000000
  55      0.000000000000
  56      0.000000000000
 Ene=  -0.19825367666280E+02
 Spin= Alpha
 Occup=    1.000000
   1     -0.000067545097
   2     -0.000259039903
   3     -0.003201101371
   4      0.000149716488
   5      0.000538016119
   6      0.000479098733
   7      0.003144505171
   8      0.005949723437
   9      0.005253104782
  10     -0.000119343544
  11      0.001335686661
  12      0.000066450054
  13      0.000101834031
  14      0.001496945039
  15      0.000086577012
  16      0.000140013361
  17     -0.001385941392
  18      0.000066033727
  19      0.000157257479
  20      0.000139353190
  21      0.000237436035
  22     -0.002304147666
  23     -0.002078253644
  24      0.000033605644
  25      0.000579536860
  26      0.000012833543
  27     -0.000099830165
  28      0.000639240375
  29      0.546471536690
  30      0.024074667235
  31     -0.017363849899
  32      0.001230847491
  33     -0.000552381829
  34     -0.000533814493
  35     -0.002540046128
  36      0.003514105859
  37      0.003235783089
  38     -0.000135762398
  39     -0.000174747353
  40     -0.000548245782
  41      0.000363936220
  42     -0.000190633186
  43     -0.823409199262
  44     -0.036736980886
  45      0.027468390416
  46     -0.001669842570
  47     -0.001305074267
  48     -0.001122565845
  49      0.004142237150
  50      0.004878268514
  51      0.004259719915
  52      0.000101717196
  53     -0.000188819675
  54      0.000482612910
  55     -0.000266432634
  56     -0.000210164975
 Ene=  -0.19736487888092E+02
 Spin= Alpha
 Occup=    0.000000
   1      0.000000000000
   2      0.000000000000
   3      0.000000000000
   4      0.000000000000
   5      0.000000000000
   6      0.000000000000
   7      0.000000000000
   8      0.000000000000
   9      0.000000000000
  10      0.000000000000
  11      0.000000000000
  12      0.000000000000
  13      0.000000000000
  14      0.000000000000
  15      0.000000000000
  16      0.000000000000
  17      0.000000000000
  18      0.000000000000
  19      0.000000000000
  20      0.000000000000
  21      0.000000000000
  22      0.000000000000
  23      0.000000000000
  24      0.000000000000
  25      0.000000000000
  26      0.000000000000
  27      0.000000000000
  28      0.000000000000
  29      0.000000000000
  30      0.000000000000
  31      0.000000000000
  32      0.000000000000
  33      0.000000000000
  34      0.000000000000
  35      0.000000000000
  36      0.000000000000
  37      0.000000000000
  38      0.000000000000
  39      0.000000000000
  40      0.000000000000
  41      0.000000000000
  42      0.000000000000
  43      0.000000000000
  44      0.000000000000
  45      0.000000000000
  46      0.000000000000
  47      0.000000000000
  48      0.000000000000
  49      0.000000000000
  50      0.000000000000
  51      0.000000000000
  52      0.000000000000
  53      0.000000000000
  54      0.000000000000
  55      0.000000000000
  56      0.000000000000
 Ene=  -0.19736487888092E+02
 Spin= Alpha
 Occup=    1.000000
   1      0.000416496750
   2      0.002318713277
   3      0.009047797505
   4     -0.000925390700
   5     -0.000041192234
   6     -0.000009146074
   7      0.020013557168
   8      0.000875532452
   9      0.000183068991
  10      0.001609766777
  11     -0.000044644684
  12     -0.000135933942
  13     -0.002749779980
  14     -0.000239634373
  15      0.987860117534
  16      0.046601672761
  17     -0.039723124512
  18     -0.003884357407
  19     -0.000170243563
  20     -0.000035933079
  21      0.008329923721
  22      0.000365376914
  23      0.000077336728
  24     -0.000395493766
  25      0.000010581391
  26      0.000046174157
  27      0.000672865951
  28      0.000058716673
  29      0.000378659783
  30     -0.000556963984
  31      0.006038147074
  32      0.000244752553
  33      0.000028004403
  34      0.000017827996
  35     -0.000190887607
  36     -0.001353674298
  37     -0.001211588555
  38      0.000181793274
  39     -0.000285444821
  40      0.000075892397
  41     -0.000311029116
  42     -0.000335916038
  43      0.000378653581
  44     -0.000555155399
  45      0.006022272167
  46      0.000245917827
  47     -0.000007346123
  48     -0.000013984368
  49     -0.000333953329
  50      0.001329299859
  51      0.001204505250
  52      0.000190646350
  53      0.000264061140
  54      0.000104812362
  55     -0.000369894945
  56      0.000273191039
 Ene=  -0.10837775001597E+02
 Spin= Alpha
 Occup=    1.000000
   1     -0.987826004609
   2     -0.051397556806
   3      0.000864918401
   4      0.000694225054
   5      0.000028863870
   6      0.000004487080
   7     -0.002924581104
   8     -0.000129298976
   9     -0.000028681960
  10      0.002928889584
  11     -0.000024452516
  12     -0.001458086464
  13     -0.004747404681
  14     -0.000401364035
  15      0.000286963778
  16     -0.000342010943
  17      0.013823364928
  18     -0.001645275159
  19     -0.000072347097
  20     -0.000015486145
  21     -0.009467809824
  22     -0.000414695510
  23     -0.000087071235
  24     -0.000727990502
  25      0.000020038802
  26      0.000080957445
  27      0.001239391075
  28      0.000108494759
  29     -0.000057116899
  30     -0.000392764023
  31      0.005308804694
  32      0.000964163754
  33     -0.000503218127
  34     -0.000481587812
  35      0.005366436031
  36     -0.001946318150
  37     -0.001911828452
  38     -0.000551218392
  39     -0.001337797338
  40      0.000650703792
  41      0.000903635881
  42     -0.001404564113
  43     -0.000057294869
  44     -0.000396594500
  45      0.005293853850
  46      0.000903957147
  47      0.000583609579
  48      0.000497199068
  49      0.005129472132
  50      0.002404305876
  51      0.002006179922
  52     -0.000508697079
  53      0.001305539787
  54      0.000794425984
  55      0.000620493480
  56      0.001525662496
 Ene=  -0.10837775001597E+02
 Spin= Alpha
 Occup=   -0.000000
   1      0.000000000000
   2      0.000000000000
   3      0.000000000000
   4      0.000000000000
   5      0.000000000000
   6      0.000000000000
   7      0.000000000000
   8      0.000000000000
   9      0.000000000000
  10      0.000000000000
  11      0.000000000000
  12      0.000000000000
  13      0.000000000000
  14      0.000000000000
  15      0.000000000000
  16      0.000000000000
  17      0.000000000000
  18      0.000000000000
  19      0.000000000000
  20      0.000000000000
  21      0.000000000000
  22      0.000000000000
  23      0.000000000000
  24      0.000000000000
  25      0.000000000000
  26      0.000000000000
  27      0.000000000000
  28      0.000000000000
  29      0.000000000000
  30      0.000000000000
  31      0.000000000000
  32      0.000000000000
  33      0.000000000000
  34      0.000000000000
  35      0.000000000000
  36      0.000000000000
  37      0.000000000000
  38      0.000000000000
  39      0.000000000000
  40      0.000000000000
  41      0.000000000000
  42      0.000000000000
  43      0.000000000000
  44      0.000000000000
  45      0.000000000000
  46      0.000000000000
  47      0.000000000000
  48      0.000000000000
  49      0.000000000000
  50      0.000000000000
  51      0.000000000000
  52      0.000000000000
  53      0.000000000000
  54      0.000000000000
  55      0.000000000000
  56      0.000000000000
 Ene=  -0.14177207079233E+01
 Spin= Alpha
 Occup=    1.000000
   1      0.143786125070
   2     -0.281547782234
   3      0.017406476331
   4      0.139116153082
   5      0.006040100830
   6      0.001215556750
   7     -0.027824381329
   8     -0.001226405024
   9     -0.000259781160
  10      0.017212620139
  11     -0.000113082953
  12     -0.009233034658
  13     -0.027759239093
  14     -0.002342813137
  15      0.038265439400
  16     -0.073758108800
  17     -0.020749647734
  18      0.030284221070
  19      0.001323306320
  20      0.000274685131
  21      0.003936598751
  22      0.000175730706
  23      0.000037471323
  24      0.000902372928
  25     -0.000047696389
  26      0.000434707910
  27     -0.001649306202
  28     -0.000148597406
  29      0.172800557997
  30     -0.338817082746
  31     -0.198853004825
  32     -0.073800147599
  33      0.080028480785
  34      0.074172978535
  35     -0.025338959997
  36      0.028315732718
  37      0.026220537125
  38      0.000331231136
  39      0.006033160670
  40     -0.013399623841
  41      0.001891251131
  42      0.006344074944
  43      0.172577349800
  44     -0.338382313252
  45     -0.198649005862
  46     -0.064945266450
  47     -0.086074370784
  48     -0.075407389903
  49     -0.022247109335
  50     -0.030409138691
  51     -0.026661800179
  52      0.000149013591
  53     -0.004783053021
  54     -0.013986430134
  55      0.003063397443
  56     -0.005645063707
 Ene=  -0.14177207079233E+01
 Spin= Alpha
 Occup=    0.000000
   1      0.000000000000
   2      0.000000000000
   3      0.000000000000
   4      0.000000000000
   5      0.000000000000
   6      0.000000000000
   7      0.000000000000
   8      0.000000000000
   9      0.000000000000
  10      0.000000000000
  11      0.000000000000
  12      0.000000000000
  13      0.000000000000
  14      0.000000000000
  15      0.000000000000
  16      0.000000000000
  17      0.000000000000
  18      0.000000000000
  19      0.000000000000
  20      0.000000000000
  21      0.000000000000
  22      0.000000000000
  23      0.000000000000
  24      0.000000000000
  25      0.000000000000
  26      0.000000000000
  27      0.000000000000
  28      0.000000000000
  29      0.000000000000
  30      0.000000000000
  31      0.000000000000
  32      0.000000000000
  33      0.000000000000
  34      0.000000000000
  35      0.000000000000
  36      0.000000000000
  37      0.000000000000
  38      0.000000000000
  39      0.000000000000
  40      0.000000000000
  41      0.000000000000
  42      0.000000000000
  43      0.000000000000
  44      0.000000000000
  45      0.000000000000
  46      0.000000000000
  47      0.000000000000
  48      0.000000000000
  49      0.000000000000
  50      0.000000000000
  51      0.000000000000
  52      0.000000000000
  53      0.000000000000
  54      0.000000000000
  55      0.000000000000
  56      0.000000000000
 Ene=  -0.12536364604853E+01
 Spin= Alpha
 Occup=    0.000000
   1      0.000000000000
   2      0.000000000000
   3      0.000000000000
   4      0.000000000000
   5      0.000000000000
   6      0.000000000000
   7      0.000000000000
   8      0.000000000000
   9      0.000000000000
  10      0.000000000000
  11      0.000000000000
  12      0.000000000000
  13      0.000000000000
  14      0.000000000000
  15      0.000000000000
  16      0.000000000000
  17      0.000000000000
  18      0.000000000000
  19      0.000000000000
  20      0.000000000000
  21      0.000000000000
  22      0.000000000000
  23      0.000000000000
  24      0.000000000000
  25      0.000000000000
  26      0.000000000000
  27      0.000000000000
  28      0.000000000000
  29      0.000000000000
  30      0.000000000000
  31      0.000000000000
  32      0.000000000000
  33      0.000000000000
  34      0.000000000000
  35      0.000000000000
  36      0.000000000000
  37      0.000000000000
  38      0.000000000000
  39      0.000000000000
  40      0.000000000000
  41      0.000000000000
  42      0.000000000000
  43      0.000000000000
  44      0.000000000000
  45      0.000000000000
  46      0.000000000000
  47      0.000000000000
  48      0.000000000000
  49      0.000000000000
  50      0.000000000000
  51      0.000000000000
  52      0.000000000000
  53      0.000000000000
  54      0.000000000000
  55      0.000000000000
  56      0.000000000000
 Ene=  -0.12536364604853E+01
 Spin= Alpha
 Occup=    1.000000
   1      0.117595658825
   2     -0.236369186062
   3     -0.022975614281
   4     -0.274090271855
   5     -0.011990609608
   6     -0.002505927868
   7     -0.020953816240
   8     -0.000914264782
   9     -0.000189097423
  10      0.011816165275
  11     -0.000505959540
  12      0.002668459226
  13     -0.020958056376
  14     -0.001870344131
  15      0.254934571809
  16     -0.501530814002
  17     -0.243157300421
  18      0.173410441456
  19      0.007598856654
  20      0.001600430773
  21      0.025204069718
  22      0.001101512414
  23      0.000229997991
  24      0.008693768199
  25     -0.000311016743
  26      0.000721793265
  27     -0.015157934170
  28     -0.001337427541
  29     -0.042469551820
  30      0.086513725947
  31      0.044935878647
  32     -0.000270208527
  33     -0.024141285862
  34     -0.021694714138
  35     -0.002040923591
  36     -0.007568273676
  37     -0.006741899253
  38      0.001394748532
  39     -0.000645251002
  40      0.004547021588
  41     -0.003340800047
  42     -0.000773040889
  43     -0.042396355126
  44      0.086364303345
  45      0.044880209014
  46     -0.002829413930
  47      0.023983483842
  48      0.021642836231
  49     -0.002820135671
  50      0.007355938702
  51      0.006697308499
  52      0.001407474157
  53      0.000131073308
  54      0.004586458877
  55     -0.003424485184
  56      0.000087385191
 Ene=  -0.10854207304465E+01
 Spin= Alpha
 Occup=    0.000000
   1      0.000000000000
   2      0.000000000000
   3      0.000000000000
   4      0.000000000000
   5      0.000000000000
   6      0.000000000000
   7      0.000000000000
   8      0.000000000000
   9      0.000000000000
  10      0.000000000000
  11      0.000000000000
  12      0.000000000000
  13      0.000000000000
  14      0.000000000000
  15      0.000000000000
  16      0.000000000000
  17      0.000000000000
  18      0.000000000000
  19      0.000000000000
  20      0.000000000000
  21      0.000000000000
  22      0.000000000000
  23      0.000000000000
  24      0.000000000000
  25      0.000000000000
  26      0.000000000000
  27      0.000000000000
  28      0.000000000000
  29      0.000000000000
  30      0.000000000000
  31      0.000000000000
  32      0.000000000000
  33      0.000000000000
  34      0.000000000000
  35      0.000000000000
  36      0.000000000000
  37      0.000000000000
  38      0.000000000000
  39      0.000000000000
  40      0.000000000000
  41      0.000000000000
  42      0.000000000000
  43      0.000000000000
  44      0.000000000000
  45      0.000000000000
  46      0.000000000000
  47      0.000000000000
  48      0.000000000000
  49      0.000000000000
  50      0.000000000000
  51      0.000000000000
  52      0.000000000000
  53      0.000000000000
  54      0.000000000000
  55      0.000000000000
  56      0.000000000000
 Ene=  -0.10854207304465E+01
 Spin= Alpha
 Occup=    1.000000
   1     -0.000062793916
   2      0.000126737826
   3      0.000027178509
   4     -0.008057161958
   5      0.152314256829
   6      0.137161196600
   7     -0.000518836335
   8      0.008991602234
   9      0.008098364705
  10     -0.000404060770
  11     -0.025019486608
  12     -0.001358821815
  13      0.002681135991
  14     -0.027734878554
  15     -0.000006179793
  16      0.000008315514
  17      0.000042352977
  18     -0.001237031408
  19      0.023706114844
  20      0.021347190363
  21     -0.000508623037
  22      0.009569755695
  23      0.008617772166
  24     -0.000068669545
  25     -0.004268791786
  26     -0.000230877846
  27      0.000455707139
  28     -0.004732179717
  29     -0.212244046146
  30      0.436867080356
  31      0.311012157879
  32      0.087080486917
  33      0.018610614110
  34      0.014092699024
  35      0.038854841665
  36      0.002647603776
  37      0.001202955379
  38     -0.003833371349
  39     -0.003146707947
  40     -0.001896803131
  41      0.007244145516
  42     -0.003087008778
  43      0.212501496233
  44     -0.437378306040
  45     -0.311500384879
  46     -0.088456943348
  47      0.010742094276
  48      0.012334268394
  49     -0.038951984524
  50     -0.000874352049
  51      0.000393775161
  52      0.003717649585
  53     -0.003547098483
  54      0.001503214676
  55     -0.006506591327
  56     -0.004333008697
 Ene=  -0.73097252298437E+00
 Spin= Alpha
 Occup=   -0.000000
   1      0.000000000000
   2      0.000000000000
   3      0.000000000000
   4      0.000000000000
   5      0.000000000000
   6      0.000000000000
   7      0.000000000000
   8      0.000000000000
   9      0.000000000000
  10      0.000000000000
  11      0.000000000000
  12      0.000000000000
  13      0.000000000000
  14      0.000000000000
  15      0.000000000000
  16      0.000000000000
  17      0.000000000000
  18      0.000000000000
  19      0.000000000000
  20      0.000000000000
  21      0.000000000000
  22      0.000000000000
  23      0.000000000000
  24      0.000000000000
  25      0.000000000000
  26      0.000000000000
  27      0.000000000000
  28      0.000000000000
  29      0.000000000000
  30      0.000000000000
  31      0.000000000000
  32      0.000000000000
  33      0.000000000000
  34      0.000000000000
  35      0.000000000000
  36      0.000000000000
  37      0.000000000000
  38      0.000000000000
  39      0.000000000000
  40      0.000000000000
  41      0.000000000000
  42      0.000000000000
  43      0.000000000000
  44      0.000000000000
  45      0.000000000000
  46      0.000000000000
  47      0.000000000000
  48      0.000000000000
  49      0.000000000000
  50      0.000000000000
  51      0.000000000000
  52      0.000000000000
  53      0.000000000000
  54      0.000000000000
  55      0.000000000000
  56      0.000000000000
 Ene=  -0.73097252298437E+00
 Spin= Alpha
 Occup=    1.000000
   1      0.154069029747
   2     -0.380732732612
   3     -0.042621388025
   4      0.185913812203
   5      0.008113243305
   6      0.001673088683
   7      0.004176828856
   8      0.000202926934
   9      0.000060566717
  10      0.006437838631
  11      0.000231766577
  12     -0.009549529581
  13     -0.009094494491
  14     -0.000712887439
  15     -0.068823350329
  16      0.142692711268
  17      0.139587109531
  18      0.086315445505
  19      0.003784178146
  20      0.000795371525
  21      0.041869847211
  22      0.001834042240
  23      0.000382863679
  24      0.001941287516
  25     -0.000069500124
  26      0.000152107318
  27     -0.003382710442
  28     -0.000299558345
  29     -0.100376151645
  30      0.207299002203
  31      0.223719333081
  32     -0.313107167582
  33      0.069660365767
  34      0.072100599614
  35     -0.160120712015
  36      0.024849956916
  37      0.027186741685
  38      0.005043159854
  39      0.012558758194
  40      0.000151200956
  41     -0.009597294385
  42      0.013345062133
  43     -0.100160086600
  44      0.206837957187
  45      0.223182470774
  46     -0.303928134839
  47     -0.096534197198
  48     -0.077571496790
  49     -0.156601586684
  50     -0.038678224258
  51     -0.030026137612
  52      0.004625831412
  53     -0.012804054672
  54     -0.001216511092
  55     -0.006867001012
  56     -0.014769103545
 Ene=  -0.65917586650291E+00
 Spin= Alpha
 Occup=    1.000000
   1      0.000002676548
   2     -0.000005091855
   3     -0.000007101962
   4      0.007588228871
   5     -0.225612040069
   6      0.250983152652
   7      0.002885284292
   8     -0.085669906410
   9      0.095304134301
  10     -0.000219574787
  11     -0.014850564583
  12     -0.000528514536
  13     -0.001027642912
  14      0.013326387838
  15      0.000003812880
  16     -0.000006376412
  17     -0.000015569263
  18      0.004442959857
  19     -0.132772231444
  20      0.147701776053
  21      0.002291803501
  22     -0.068423283022
  23      0.076117216852
  24     -0.000219042083
  25     -0.013687213474
  26     -0.000486001101
  27     -0.000950618123
  28      0.012282271493
  29      0.000000775164
  30     -0.000001558438
  31     -0.000000988353
  32      0.007770975022
  33     -0.230702442099
  34      0.256638506946
  35      0.004581337681
  36     -0.136019187403
  37      0.151310674120
  38     -0.016156077386
  39      0.010663382500
  40     -0.001622734560
  41     -0.008665194034
  42     -0.010142715225
  43      0.000000711060
  44     -0.000001504607
  45     -0.000000231760
  46      0.007758873239
  47     -0.230369884236
  48      0.256283325988
  49      0.004574551435
  50     -0.135827395607
  51      0.151106770864
  52      0.016476518632
  53      0.010116480591
  54      0.002362845957
  55      0.010107417318
  56     -0.008504240929
 Ene=  -0.65917586650291E+00
 Spin= Alpha
 Occup=    0.000000
   1      0.000000000000
   2      0.000000000000
   3      0.000000000000
   4      0.000000000000
   5      0.000000000000
   6      0.000000000000
   7      0.000000000000
   8      0.000000000000
   9      0.000000000000
  10      0.000000000000
  11      0.000000000000
  12      0.000000000000
  13      0.000000000000
  14      0.000000000000
  15      0.000000000000
  16      0.000000000000
  17      0.000000000000
  18      0.000000000000
  19      0.000000000000
  20      0.000000000000
  21      0.000000000000
  22      0.000000000000
  23      0.000000000000
  24      0.000000000000
  25      0.000000000000
  26      0.000000000000
  27      0.000000000000
  28      0.000000000000
  29      0.000000000000
  30      0.000000000000
  31      0.000000000000
  32      0.000000000000
  33      0.000000000000
  34      0.000000000000
  35      0.000000000000
  36      0.000000000000
  37      0.000000000000
  38      0.000000000000
  39      0.000000000000
  40      0.000000000000
  41      0.000000000000
  42      0.000000000000
  43      0.000000000000
  44      0.000000000000
  45      0.000000000000
  46      0.000000000000
  47      0.000000000000
  48      0.000000000000
  49      0.000000000000
  50      0.000000000000
  51      0.000000000000
  52      0.000000000000
  53      0.000000000000
  54      0.000000000000
  55      0.000000000000
  56      0.000000000000
 Ene=  -0.62463940413328E+00
 Spin= Alpha
 Occup=    1.000000
   1     -0.074021689005
   2      0.172386274218
   3      0.082293282692
   4      0.277363085417
   5      0.012934251121
   6      0.003236883736
   7     -0.054728586416
   8     -0.002194061594
   9     -0.000323277984
  10      0.007590307431
  11     -0.000570557950
  12      0.006685427813
  13     -0.014511151559
  14     -0.001363651004
  15      0.131575227161
  16     -0.272996150331
  17     -0.303011003386
  18     -0.417449934654
  19     -0.017754676135
  20     -0.003378384861
  21     -0.207102835323
  22     -0.008767151607
  23     -0.001641253774
  24     -0.011843162976
  25      0.000322675543
  26      0.000422545848
  27      0.020354663254
  28      0.001741123871
  29     -0.038392539860
  30      0.083412877903
  31      0.057764596939
  32     -0.011980091784
  33      0.170199438228
  34      0.153358213217
  35     -0.005537152262
  36      0.103432410016
  37      0.093146232235
  38     -0.004105083681
  39      0.004016577650
  40     -0.013105483716
  41      0.009630939461