[Molden Format]
[Title]
generated by TRESC, real part2 of MOs of job CO3
 
[Atoms] AU
 C   1   6    0.8683455824    5.9117408867    0.3946624736
 O   2   8    3.0759666602    6.0084693058    0.4150267281
 O   3   8   -1.2068755866    6.9101599458    1.3549785802
 O   4   8   -1.0934266921    4.7345528503   -0.6041387501
[GTO]
  1 0
 s  5 1.0
     1238.4016938000        0.0059599745
      186.2900499200        0.0422621111
       42.2511763500        0.1866575214
       11.6765579300        0.4675815865
        3.5930506500        0.4422897287
 s  1 1.0
        0.4024514700        1.0000000000
 s  1 1.0
        0.1309018300        1.0000000000
 p  3 1.0
        9.4680970600        0.0570294585
        2.0103545100        0.3130471495
        0.5477100500        0.7605135301
 p  1 1.0
        0.1526861400        1.0000000000
 d  1 1.0
        0.8000000000        1.0000000000
 
  2 0
 s  5 1.0
     2266.1767785000        0.0060711540
      340.8701019100        0.0417308970
       77.3631351700        0.1850777598
       21.4796449400        0.4668774046
        6.6589433100        0.4435718061
 s  1 1.0
        0.8097597600        1.0000000000
 s  1 1.0
        0.2553077200        1.0000000000
 p  3 1.0
       17.7215043200        0.0628680198
        3.8635505400        0.3334973703
        1.0480920900        0.7412421661
 p  1 1.0
        0.2764154400        1.0000000000
 d  1 1.0
        1.2000000000        1.0000000000
 
  3 0
 s  5 1.0
     2266.1767785000        0.0060711540
      340.8701019100        0.0417308970
       77.3631351700        0.1850777598
       21.4796449400        0.4668774046
        6.6589433100        0.4435718061
 s  1 1.0
        0.8097597600        1.0000000000
 s  1 1.0
        0.2553077200        1.0000000000
 p  3 1.0
       17.7215043200        0.0628680198
        3.8635505400        0.3334973703
        1.0480920900        0.7412421661
 p  1 1.0
        0.2764154400        1.0000000000
 d  1 1.0
        1.2000000000        1.0000000000
 
  4 0
 s  5 1.0
     2266.1767785000        0.0060711540
      340.8701019100        0.0417308970
       77.3631351700        0.1850777598
       21.4796449400        0.4668774046
        6.6589433100        0.4435718061
 s  1 1.0
        0.8097597600        1.0000000000
 s  1 1.0
        0.2553077200        1.0000000000
 p  3 1.0
       17.7215043200        0.0628680198
        3.8635505400        0.3334973703
        1.0480920900        0.7412421661
 p  1 1.0
        0.2764154400        1.0000000000
 d  1 1.0
        1.2000000000        1.0000000000
 
[5D]
[7F]
[9G]
[MO]
 Ene=   0.10119368109464E+01
 Spin= Alpha
 Occup=    0.000000
   1      0.000000000000
   2      0.000000000000
   3      0.000000000000
   4      0.000000000000
   5      0.000000000000
   6      0.000000000000
   7      0.000000000000
   8      0.000000000000
   9      0.000000000000
  10      0.000000000000
  11      0.000000000000
  12      0.000000000000
  13      0.000000000000
  14      0.000000000000
  15      0.000000000000
  16      0.000000000000
  17      0.000000000000
  18      0.000000000000
  19      0.000000000000
  20      0.000000000000
  21      0.000000000000
  22      0.000000000000
  23      0.000000000000
  24      0.000000000000
  25      0.000000000000
  26      0.000000000000
  27      0.000000000000
  28      0.000000000000
  29      0.000000000000
  30      0.000000000000
  31      0.000000000000
  32      0.000000000000
  33      0.000000000000
  34      0.000000000000
  35      0.000000000000
  36      0.000000000000
  37      0.000000000000
  38      0.000000000000
  39      0.000000000000
  40      0.000000000000
  41      0.000000000000
  42      0.000000000000
  43      0.000000000000
  44      0.000000000000
  45      0.000000000000
  46      0.000000000000
  47      0.000000000000
  48      0.000000000000
  49      0.000000000000
  50      0.000000000000
  51      0.000000000000
  52      0.000000000000
  53      0.000000000000
  54      0.000000000000
  55      0.000000000000
  56      0.000000000000
 Ene=   0.10119368109464E+01
 Spin= Alpha
 Occup=    0.000000
   1     -0.007512122940
   2     -0.024923020549
   3     -1.188154139722
   4      0.156160916235
   5      0.006789241293
   6      0.001376697129
   7      0.991726212329
   8      0.043780255936
   9      0.009425123581
  10      0.053161895060
  11     -0.008249113028
  12      0.139727819467
  13     -0.121262297941
  14     -0.012062146604
  15     -0.036854377739
  16      0.186810685275
  17     -0.351979910006
  18      0.549278664345
  19      0.024189769269
  20      0.005141288633
  21     -0.692790924533
  22     -0.030505746363
  23     -0.006454208779
  24     -0.011121152826
  25     -0.000381216308
  26      0.016429732933
  27      0.015724634708
  28      0.001240728292
  29      0.096786356338
  30     -0.593898860194
  31      1.386086259939
  32      0.152622944203
  33     -0.302872156308
  34     -0.276769866342
  35      0.058595086066
  36      0.194266542566
  37      0.172711149680
  38     -0.012506896228
  39      0.018542940161
  40      0.034233506248
  41      0.013020884441
  42      0.022801958061
  43      0.096923020706
  44     -0.594757333293
  45      1.387077834520
  46      0.119770211218
  47      0.314437843801
  48      0.279152670961
  49      0.079339901101
  50     -0.187276189865
  51     -0.170917329118
  52     -0.013136768703
  53     -0.020743067134
  54      0.032086950484
  55      0.017233069011
  56     -0.020747758148
 Ene=   0.10479096958203E+01
 Spin= Alpha
 Occup=    0.000000
   1     -0.021182213932
   2      0.307607826345
   3      0.062406748301
   4      0.051180988380
   5      0.002112841842
   6      0.000364118890
   7     -0.326128824511
   8     -0.014249347608
   9     -0.003008779159
  10     -0.102375155538
  11      0.007709117614
  12     -0.085363664132
  13      0.194695201379
  14      0.018458010365
  15     -0.016181536655
  16      0.122361547050
  17     -0.199867580546
  18     -0.288373141073
  19     -0.011528203969
  20     -0.001644153308
  21      0.647539028043
  22      0.026766860086
  23      0.004502930173
  24      0.001640836641
  25     -0.000286729809
  26      0.003615447020
  27     -0.003591455593
  28     -0.000421596599
  29      0.022206832868
  30     -0.101612387346
  31      0.050075296317
  32     -0.438077992953
  33     -0.304436803977
  34     -0.260475225253
  35      0.428716627435
  36      0.392588025009
  37      0.340031798975
  38      0.030379138289
  39     -0.017737362121
  40      0.051251518552
  41     -0.062281530737
  42     -0.022022574361
  43      0.022121604615
  44     -0.100804951549
  45      0.048598560225
  46     -0.466765064075
  47      0.264537262842
  48      0.251849168326
  49      0.465345089140
  50     -0.353588422438
  51     -0.331821648204
  52      0.030812031026
  53      0.011020727121
  54      0.052807306774
  55     -0.065313796492
  56      0.009859729564
 Ene=   0.10479096958203E+01
 Spin= Alpha
 Occup=    0.000000
   1      0.000000000000
   2      0.000000000000
   3      0.000000000000
   4      0.000000000000
   5      0.000000000000
   6      0.000000000000
   7      0.000000000000
   8      0.000000000000
   9      0.000000000000
  10      0.000000000000
  11      0.000000000000
  12      0.000000000000
  13      0.000000000000
  14      0.000000000000
  15      0.000000000000
  16      0.000000000000
  17      0.000000000000
  18      0.000000000000
  19      0.000000000000
  20      0.000000000000
  21      0.000000000000
  22      0.000000000000
  23      0.000000000000
  24      0.000000000000
  25      0.000000000000
  26      0.000000000000
  27      0.000000000000
  28      0.000000000000
  29      0.000000000000
  30      0.000000000000
  31      0.000000000000
  32      0.000000000000
  33      0.000000000000
  34      0.000000000000
  35      0.000000000000
  36      0.000000000000
  37      0.000000000000
  38      0.000000000000
  39      0.000000000000
  40      0.000000000000
  41      0.000000000000
  42      0.000000000000
  43      0.000000000000
  44      0.000000000000
  45      0.000000000000
  46      0.000000000000
  47      0.000000000000
  48      0.000000000000
  49      0.000000000000
  50      0.000000000000
  51      0.000000000000
  52      0.000000000000
  53      0.000000000000
  54      0.000000000000
  55      0.000000000000
  56      0.000000000000
 Ene=   0.10809564478926E+01
 Spin= Alpha
 Occup=    0.000000
   1      0.000000000000
   2      0.000000000000
   3      0.000000000000
   4      0.000000000000
   5      0.000000000000
   6      0.000000000000
   7      0.000000000000
   8      0.000000000000
   9      0.000000000000
  10      0.000000000000
  11      0.000000000000
  12      0.000000000000
  13      0.000000000000
  14      0.000000000000
  15      0.000000000000
  16      0.000000000000
  17      0.000000000000
  18      0.000000000000
  19      0.000000000000
  20      0.000000000000
  21      0.000000000000
  22      0.000000000000
  23      0.000000000000
  24      0.000000000000
  25      0.000000000000
  26      0.000000000000
  27      0.000000000000
  28      0.000000000000
  29      0.000000000000
  30      0.000000000000
  31      0.000000000000
  32      0.000000000000
  33      0.000000000000
  34      0.000000000000
  35      0.000000000000
  36      0.000000000000
  37      0.000000000000
  38      0.000000000000
  39      0.000000000000
  40      0.000000000000
  41      0.000000000000
  42      0.000000000000
  43      0.000000000000
  44      0.000000000000
  45      0.000000000000
  46      0.000000000000
  47      0.000000000000
  48      0.000000000000
  49      0.000000000000
  50      0.000000000000
  51      0.000000000000
  52      0.000000000000
  53      0.000000000000
  54      0.000000000000
  55      0.000000000000
  56      0.000000000000
 Ene=   0.10809564478926E+01
 Spin= Alpha
 Occup=    0.000000
   1     -0.000049215273
   2      0.000910640769
   3      0.000661418684
   4     -0.005812013939
   5      0.112758742865
   6      0.101536370050
   7      0.001331027541
   8     -0.050336296987
   9     -0.045288649305
  10     -0.002757349923
  11     -0.159818100830
  12     -0.008834322647
  13      0.017443094349
  14     -0.177147613952
  15     -0.000057218017
  16      0.000374574855
  17     -0.000370119536
  18      0.026359001118
  19     -0.515271303033
  20     -0.463982361094
  21     -0.035848611430
  22      0.712304646979
  23      0.641385754880
  24      0.000382610171
  25      0.024000539551
  26      0.001308197279
  27     -0.002562080389
  28      0.026606131665
  29     -0.003626692619
  30      0.070730969757
  31     -0.160750740756
  32      0.325361864916
  33      0.136300463674
  34      0.112735410822
  35     -0.668614276621
  36     -0.113774046784
  37     -0.082122333543
  38     -0.007157448649
  39     -0.012100118552
  40     -0.001204251692
  41      0.013439530170
  42     -0.012615848606
  43      0.003638421960
  44     -0.070683131025
  45      0.159442245761
  46     -0.340390319202
  47      0.108141028400
  48      0.107450510526
  49      0.679277920146
  50     -0.056047704721
  51     -0.070854558669
  52      0.006896635283
  53     -0.012611954443
  54     -0.000001573590
  55     -0.011070910593
  56     -0.014791864837
 Ene=   0.11611432324108E+01
 Spin= Alpha
 Occup=    0.000000
   1      0.000000000000
   2      0.000000000000
   3      0.000000000000
   4      0.000000000000
   5      0.000000000000
   6      0.000000000000
   7      0.000000000000
   8      0.000000000000
   9      0.000000000000
  10      0.000000000000
  11      0.000000000000
  12      0.000000000000
  13      0.000000000000
  14      0.000000000000
  15      0.000000000000
  16      0.000000000000
  17      0.000000000000
  18      0.000000000000
  19      0.000000000000
  20      0.000000000000
  21      0.000000000000
  22      0.000000000000
  23      0.000000000000
  24      0.000000000000
  25      0.000000000000
  26      0.000000000000
  27      0.000000000000
  28      0.000000000000
  29      0.000000000000
  30      0.000000000000
  31      0.000000000000
  32      0.000000000000
  33      0.000000000000
  34      0.000000000000
  35      0.000000000000
  36      0.000000000000
  37      0.000000000000
  38      0.000000000000
  39      0.000000000000
  40      0.000000000000
  41      0.000000000000
  42      0.000000000000
  43      0.000000000000
  44      0.000000000000
  45      0.000000000000
  46      0.000000000000
  47      0.000000000000
  48      0.000000000000
  49      0.000000000000
  50      0.000000000000
  51      0.000000000000
  52      0.000000000000
  53      0.000000000000
  54      0.000000000000
  55      0.000000000000
  56      0.000000000000
 Ene=   0.11611432324108E+01
 Spin= Alpha
 Occup=    0.000000
   1     -0.000006036282
   2      0.000095048412
   3      0.000045682975
   4      0.001367053276
   5     -0.040297435720
   6      0.044831225629
   7     -0.022311423860
   8      0.667311470254
   9     -0.742347219549
  10     -0.001239636477
  11     -0.072962053138
  12     -0.002583646916
  13     -0.005096820910
  14      0.065470182686
  15     -0.000009839398
  16      0.000069800334
  17     -0.000181851470
  18     -0.017695420329
  19      0.528620754269
  20     -0.588061767257
  21      0.029216523510
  22     -0.870113935743
  23      0.967959845274
  24      0.000649355306
  25      0.040724643846
  26      0.001445967172
  27      0.002830992624
  28     -0.036544150558
  29     -0.000008183081
  30      0.000049739353
  31     -0.000012839972
  32     -0.007981097587
  33      0.238007083122
  34     -0.264800512091
  35      0.013121402616
  36     -0.391561100909
  37      0.435625960224
  38     -0.011432330677
  39     -0.020769091722
  40     -0.002096035751
  41     -0.007841299300
  42      0.018247116040
  43     -0.000007525712
  44      0.000044491647
  45     -0.000001788467
  46     -0.007969991155
  47      0.237721582139
  48     -0.264425580764
  49      0.013099742635
  50     -0.390984444474
  51      0.434927963086
  52      0.010785721586
  53     -0.021101217976
  54      0.000618813299
  55      0.004942641747
  56      0.019325724854
 Ene=   0.11986798213274E+01
 Spin= Alpha
 Occup=    0.000000
   1     -0.000008346107
   2      0.000401083042
   3      0.000335210213
   4     -0.010182109152
   5      0.192195591174
   6      0.173075159633
   7      0.034227388531
   8     -0.661368119063
   9     -0.595544184250
  10     -0.001059998030
  11     -0.060846262742
  12     -0.003345381048
  13      0.006670675150
  14     -0.067441342925
  15     -0.000030579579
  16      0.000185144752
  17     -0.000308795655
  18      0.016335113900
  19     -0.315042175625
  20     -0.283686975924
  21     -0.030112230197
  22      0.583592280938
  23      0.525505180673
  24      0.000211300043
  25      0.012316661183
  26      0.000670032994
  27     -0.001337164181
  28      0.013652555036
  29     -0.076201097875
  30      0.592549759730
  31     -1.168030394563
  32     -0.313335414159
  33     -0.272691879807
  34     -0.235611032954
  35      0.493429104301
  36      1.032471866114
  37      0.913117400540
  38      0.001040569303
  39      0.005130954965
  40      0.034012462589
  41     -0.009438119244
  42      0.006350555823
  43      0.076214484057
  44     -0.592521241677
  45      1.167403596967
  46      0.339799653169
  47     -0.243778225845
  48     -0.229447871011
  49     -0.598591134330
  50      0.983902821970
  51      0.902606283084
  52     -0.000813444497
  53      0.008289582662
  54     -0.033271036547
  55      0.007971430751
  56      0.008524389804
 Ene=   0.11986798213274E+01
 Spin= Alpha
 Occup=    0.000000
   1      0.000000000000
   2      0.000000000000
   3      0.000000000000
   4      0.000000000000
   5      0.000000000000
   6      0.000000000000
   7      0.000000000000
   8      0.000000000000
   9      0.000000000000
  10      0.000000000000
  11      0.000000000000
  12      0.000000000000
  13      0.000000000000
  14      0.000000000000
  15      0.000000000000
  16      0.000000000000
  17      0.000000000000
  18      0.000000000000
  19      0.000000000000
  20      0.000000000000
  21      0.000000000000
  22      0.000000000000
  23      0.000000000000
  24      0.000000000000
  25      0.000000000000
  26      0.000000000000
  27      0.000000000000
  28      0.000000000000
  29      0.000000000000
  30      0.000000000000
  31      0.000000000000
  32      0.000000000000
  33      0.000000000000
  34      0.000000000000
  35      0.000000000000
  36      0.000000000000
  37      0.000000000000
  38      0.000000000000
  39      0.000000000000
  40      0.000000000000
  41      0.000000000000
  42      0.000000000000
  43      0.000000000000
  44      0.000000000000
  45      0.000000000000
  46      0.000000000000
  47      0.000000000000
  48      0.000000000000
  49      0.000000000000
  50      0.000000000000
  51      0.000000000000
  52      0.000000000000
  53      0.000000000000
  54      0.000000000000
  55      0.000000000000
  56      0.000000000000
 Ene=   0.13863603383478E+01
 Spin= Alpha
 Occup=    0.000000
   1      0.000000000000
   2      0.000000000000
   3      0.000000000000
   4      0.000000000000
   5      0.000000000000
   6      0.000000000000
   7      0.000000000000
   8      0.000000000000
   9      0.000000000000
  10      0.000000000000
  11      0.000000000000
  12      0.000000000000
  13      0.000000000000
  14      0.000000000000
  15      0.000000000000
  16      0.000000000000
  17      0.000000000000
  18      0.000000000000
  19      0.000000000000
  20      0.000000000000
  21      0.000000000000
  22      0.000000000000
  23      0.000000000000
  24      0.000000000000
  25      0.000000000000
  26      0.000000000000
  27      0.000000000000
  28      0.000000000000
  29      0.000000000000
  30      0.000000000000
  31      0.000000000000
  32      0.000000000000
  33      0.000000000000
  34      0.000000000000
  35      0.000000000000
  36      0.000000000000
  37      0.000000000000
  38      0.000000000000
  39      0.000000000000
  40      0.000000000000
  41      0.000000000000
  42      0.000000000000
  43      0.000000000000
  44      0.000000000000
  45      0.000000000000
  46      0.000000000000
  47      0.000000000000
  48      0.000000000000
  49      0.000000000000
  50      0.000000000000
  51      0.000000000000
  52      0.000000000000
  53      0.000000000000
  54      0.000000000000
  55      0.000000000000
  56      0.000000000000
 Ene=   0.13863603383478E+01
 Spin= Alpha
 Occup=    0.000000
   1     -0.083615013431
   2      1.171431713030
   3      2.866400867173
   4      0.197106623312
   5      0.008885521652
   6      0.002052417230
   7      0.592334657399
   8      0.026905683986
   9      0.006584240155
  10     -0.167472351343
  11      0.004543334587
  12      0.014695058683
  13      0.285951817020
  14      0.024953924235
  15     -0.170600883770
  16      1.291514354598
  17     -3.452541309500
  18      0.265911932976
  19      0.011892859634
  20      0.002768756115
  21      1.002750399251
  22      0.043335780926
  23      0.008564199790
  24     -0.010700709533
  25      0.001120896986
  26     -0.017800594008
  27      0.022232270582
  28      0.002068981468
  29     -0.139262803894
  30      0.927424261776
  31     -1.549560751778
  32      0.160825075548
  33     -0.107879828959
  34     -0.101792162700
  35     -0.751744427083
  36      0.191373832791
  37      0.194640442747
  38     -0.008169198106
  39     -0.034093338161
  40      0.043216208862
  41      0.007144349089
  42     -0.035891902751
  43     -0.138955959096
  44      0.924980193944
  45     -1.543280138748
  46      0.148685545924
  47      0.121777881852
  48      0.105017501132
  49     -0.726252017426
  50     -0.255364182569
  51     -0.207709353733
  52     -0.007097147204
  53      0.030500837712
  54      0.046665500041
  55      0.000220877803
  56      0.035710754233
 Ene=   0.14719750253832E+01
 Spin= Alpha
 Occup=    0.000000
   1     -0.000041664238
   2     -0.000558053860
   3      0.001138626847
   4      0.015364614684
   5     -0.288730125237
   6     -0.260008506266
   7      0.072132522287
   8     -1.391158878624
   9     -1.252715860248
  10      0.002025782767
  11      0.125440692925
  12      0.006155742064
  13     -0.013147569261
  14      0.139050910442
  15      0.000134702520
  16     -0.000715331970
  17      0.000512643833
  18      0.015531895700
  19     -0.284566646804
  20     -0.256271199993
  21     -0.039695183484
  22      0.747963186205
  23      0.673556184028
  24      0.000949138046
  25      0.056770306963
  26      0.002939239876
  27     -0.006066312684
  28      0.062927751964
  29      0.171213101353
  30     -1.326368365303
  31      3.093857090164
  32     -0.240351738183
  33     -0.043777671270
  34     -0.032057402066
  35      1.095578463961
  36     -0.535670379210
  37     -0.514743373328
  38      0.025755137777
  39      0.024037123589
  40     -0.057102525323
  41     -0.033904765466
  42      0.022321481465
  43     -0.171685208332
  44      1.329081596354
  45     -3.096590650023
  46      0.245061904711
  47     -0.021223373946
  48     -0.026516398314
  49     -1.036278424144
  50     -0.631297054606
  51     -0.536053428258
  52     -0.024902523806
  53      0.020591831027
  54      0.059878156663
  55      0.028796413162
  56      0.027142080679
 Ene=   0.14719750253832E+01
 Spin= Alpha
 Occup=    0.000000
   1      0.000000000000
   2      0.000000000000
   3      0.000000000000
   4      0.000000000000
   5      0.000000000000
   6      0.000000000000
   7      0.000000000000
   8      0.000000000000
   9      0.000000000000
  10      0.000000000000
  11      0.000000000000
  12      0.000000000000
  13      0.000000000000
  14      0.000000000000
  15      0.000000000000
  16      0.000000000000
  17      0.000000000000
  18      0.000000000000
  19      0.000000000000
  20      0.000000000000
  21      0.000000000000
  22      0.000000000000
  23      0.000000000000
  24      0.000000000000
  25      0.000000000000
  26      0.000000000000
  27      0.000000000000
  28      0.000000000000
  29      0.000000000000
  30      0.000000000000
  31      0.000000000000
  32      0.000000000000
  33      0.000000000000
  34      0.000000000000
  35      0.000000000000
  36      0.000000000000
  37      0.000000000000
  38      0.000000000000
  39      0.000000000000
  40      0.000000000000
  41      0.000000000000
  42      0.000000000000
  43      0.000000000000
  44      0.000000000000
  45      0.000000000000
  46      0.000000000000
  47      0.000000000000
  48      0.000000000000
  49      0.000000000000
  50      0.000000000000
  51      0.000000000000
  52      0.000000000000
  53      0.000000000000
  54      0.000000000000
  55      0.000000000000
  56      0.000000000000
 Ene=   0.15703496128223E+01
 Spin= Alpha
 Occup=    0.000000
   1      0.000000000000
   2      0.000000000000
   3      0.000000000000
   4      0.000000000000
   5      0.000000000000
   6      0.000000000000
   7      0.000000000000
   8      0.000000000000
   9      0.000000000000
  10      0.000000000000
  11      0.000000000000
  12      0.000000000000
  13      0.000000000000
  14      0.000000000000
  15      0.000000000000
  16      0.000000000000
  17      0.000000000000
  18      0.000000000000
  19      0.000000000000
  20      0.000000000000
  21      0.000000000000
  22      0.000000000000
  23      0.000000000000
  24      0.000000000000
  25      0.000000000000
  26      0.000000000000
  27      0.000000000000
  28      0.000000000000
  29      0.000000000000
  30      0.000000000000
  31      0.000000000000
  32      0.000000000000
  33      0.000000000000
  34      0.000000000000
  35      0.000000000000
  36      0.000000000000
  37      0.000000000000
  38      0.000000000000
  39      0.000000000000
  40      0.000000000000
  41      0.000000000000
  42      0.000000000000
  43      0.000000000000
  44      0.000000000000
  45      0.000000000000
  46      0.000000000000
  47      0.000000000000
  48      0.000000000000
  49      0.000000000000
  50      0.000000000000
  51      0.000000000000
  52      0.000000000000
  53      0.000000000000
  54      0.000000000000
  55      0.000000000000
  56      0.000000000000
 Ene=   0.15703496128223E+01
 Spin= Alpha
 Occup=    0.000000
   1     -0.000016125296
   2      0.000356129043
   3      0.000411249149
   4      0.001252869992
   5     -0.031785591975
   6      0.035370100947
   7      0.000478053803
   8      0.056889839950
   9     -0.063151104483
  10      0.011118281260
  11      0.625534329440
  12      0.022742318326
  13      0.044180385513
  14     -0.561297910748
  15     -0.000200600326
  16      0.001405697968
  17     -0.003500739435
  18     -0.005544124200
  19      0.159687217572
  20     -0.177654683611
  21     -0.000380277831
  22      0.042397655409
  23     -0.047103607610
  24     -0.002128021790
  25     -0.140495322451
  26     -0.004909921476
  27     -0.009635178444
  28      0.126080604344
  29      0.000083202035
  30     -0.000524371133
  31      0.001260133027
  32      0.000957003571
  33     -0.031651624875
  34      0.035518033470
  35      0.003590203547
  36     -0.100460656672
  37      0.111095683962
  38      0.137700610986
  39     -0.102743614799
  40      0.013397983158
  41      0.073241560377
  42      0.097225980994
  43      0.000082858261
  44     -0.000521673697
  45      0.001253139530
  46      0.000961048894
  47     -0.031582980792
  48      0.034814982057
  49      0.003572629242
  50     -0.100371427562
  51      0.112341806007
  52     -0.141114664276
  53     -0.098644620123
  54     -0.020676566774
  55     -0.087167659251
  56      0.083505940411
 Ene=   0.15948645322765E+01
 Spin= Alpha
 Occup=    0.000000
   1      0.000000000000
   2      0.000000000000
   3      0.000000000000
   4      0.000000000000
   5      0.000000000000
   6      0.000000000000
   7      0.000000000000
   8      0.000000000000
   9      0.000000000000
  10      0.000000000000
  11      0.000000000000
  12      0.000000000000
  13      0.000000000000
  14      0.000000000000
  15      0.000000000000
  16      0.000000000000
  17      0.000000000000
  18      0.000000000000
  19      0.000000000000
  20      0.000000000000
  21      0.000000000000
  22      0.000000000000
  23      0.000000000000
  24      0.000000000000
  25      0.000000000000
  26      0.000000000000
  27      0.000000000000
  28      0.000000000000
  29      0.000000000000
  30      0.000000000000
  31      0.000000000000
  32      0.000000000000
  33      0.000000000000
  34      0.000000000000
  35      0.000000000000
  36      0.000000000000
  37      0.000000000000
  38      0.000000000000
  39      0.000000000000
  40      0.000000000000
  41      0.000000000000
  42      0.000000000000
  43      0.000000000000
  44      0.000000000000
  45      0.000000000000
  46      0.000000000000
  47      0.000000000000
  48      0.000000000000
  49      0.000000000000
  50      0.000000000000
  51      0.000000000000
  52      0.000000000000
  53      0.000000000000
  54      0.000000000000
  55      0.000000000000
  56      0.000000000000
 Ene=   0.15948645322765E+01
 Spin= Alpha
 Occup=    0.000000
   1      0.011115755762
   2     -0.300197742278
   3     -0.101153662227
   4     -0.215469509262
   5     -0.009070171288
   6     -0.001593400640
   7     -2.999233322788
   8     -0.129361044997
   9     -0.025769324031
  10      0.013836307641
  11      0.011216060425
  12     -0.246039921324
  13      0.028190443661
  14      0.004128388853
  15      0.233980253033
  16     -1.627788313928
  17      4.019054581337
  18      0.263246121856
  19      0.012017093777
  20      0.002620346138
  21     -1.181441242316
  22     -0.052743095603
  23     -0.011926569718
  24      0.040170862259
  25      0.000848932061
  26     -0.051473358462
  27     -0.058464718150
  28     -0.004646750255
  29     -0.128555118537
  30      0.815897543745
  31     -1.859939114508
  32      0.158461141178
  33     -0.227139295391
  34     -0.208937865400
  35     -0.397168972685
  36      0.431457300623
  37      0.400080593679
  38      0.034822271836
  39     -0.072165772634
  40      0.037445693765
  41     -0.063055483055
  42     -0.083043256033
  43     -0.127988249158
  44      0.811325849867
  45     -1.848106676577
  46      0.133347136706
  47      0.240147047522
  48      0.211870176445
  49     -0.346916589759
  50     -0.462476741482
  51     -0.404995257314
  52      0.036885618439
  53      0.065764350636
  54      0.044646512424
  55     -0.078062363983
  56      0.069835287010
 Ene=   0.15973864958803E+01
 Spin= Alpha
 Occup=    0.000000
   1      0.000000000000
   2      0.000000000000
   3      0.000000000000
   4      0.000000000000
   5      0.000000000000
   6      0.000000000000
   7      0.000000000000
   8      0.000000000000
   9      0.000000000000
  10      0.000000000000
  11      0.000000000000
  12      0.000000000000
  13      0.000000000000
  14      0.000000000000
  15      0.000000000000
  16      0.000000000000
  17      0.000000000000
  18      0.000000000000
  19      0.000000000000
  20      0.000000000000
  21      0.000000000000
  22      0.000000000000
  23      0.000000000000
  24      0.000000000000
  25      0.000000000000
  26      0.000000000000
  27      0.000000000000
  28      0.000000000000
  29      0.000000000000
  30      0.000000000000
  31      0.000000000000
  32      0.000000000000
  33      0.000000000000
  34      0.000000000000
  35      0.000000000000
  36      0.000000000000
  37      0.000000000000
  38      0.000000000000
  39      0.000000000000
  40      0.000000000000
  41      0.000000000000